 NP
  0.000000000000000E+000  !scissors operator
5.6091
     3.3231136     0.0000000     0.0000000
     0.0000000     4.3489554     0.0000000
     0.0000000     0.0000000    10.5137048
 written on 19Apr2023 at 22:44:49 
          32
          81
    4    2    2    2    2    2    2    2    4    2    1    1    1    1    1
    1    1    2    2    1    1    1    1    1    1    1    2    2    1    1
    1    1    1    1    1    2    2    1    1    1    1    1    1    1    2
    2    1    1    1    1    1    1    1    2    2    1    1    1    1    1
    1    1    2    2    1    1    1    1    1    1    1    2    4    2    2
    2    2    2    2    2    4
   -4   -4    0    1    1   -0.002023   -0.000000
   -4   -4    0    2    1    0.000183    0.000193
   -4   -4    0    3    1   -0.001226    0.000039
   -4   -4    0    4    1   -0.000213    0.000288
   -4   -4    0    5    1   -0.001071    0.000014
   -4   -4    0    6    1    0.000668   -0.000093
   -4   -4    0    7    1    0.000389    0.000253
   -4   -4    0    8    1    0.000406   -0.000148
   -4   -4    0    9    1    0.000153    0.000072
   -4   -4    0   10    1   -0.000676   -0.000009
   -4   -4    0   11    1   -0.000718    0.000015
   -4   -4    0   12    1   -0.000342   -0.000034
   -4   -4    0   13    1    0.000078    0.000388
   -4   -4    0   14    1    0.000338   -0.000400
   -4   -4    0   15    1    0.001452   -0.000054
   -4   -4    0   16    1    0.001209    0.000287
   -4   -4    0   17    1   -0.000118   -0.000021
   -4   -4    0   18    1   -0.000221    0.000004
   -4   -4    0   19    1    0.000561   -0.000068
   -4   -4    0   20    1   -0.000228    0.000110
   -4   -4    0   21    1    0.001291   -0.000026
   -4   -4    0   22    1    0.000229    0.000334
   -4   -4    0   23    1   -0.001264    0.000099
   -4   -4    0   24    1    0.000068    0.000394
   -4   -4    0   25    1   -0.000734    0.000151
   -4   -4    0   26    1   -0.000741    0.000130
   -4   -4    0   27    1   -0.000630   -0.000052
   -4   -4    0   28    1   -0.000976    0.000511
   -4   -4    0   29    1   -0.000561    0.000022
   -4   -4    0   30    1   -0.000356    0.000012
   -4   -4    0   31    1   -0.000183    0.000022
   -4   -4    0   32    1    0.000605   -0.000038
   -4   -4    0    1    2    0.000183   -0.000193
   -4   -4    0    2    2   -0.000148   -0.000000
   -4   -4    0    3    2   -0.000182    0.000202
   -4   -4    0    4    2   -0.000249   -0.001143
   -4   -4    0    5    2   -0.000680   -0.000112
   -4   -4    0    6    2   -0.000129   -0.000094
   -4   -4    0    7    2    0.000181   -0.000357
   -4   -4    0    8    2    0.000575   -0.000281
   -4   -4    0    9    2    0.000017   -0.000045
   -4   -4    0   10    2    0.000232    0.000505
   -4   -4    0   11    2    0.000005   -0.000053
   -4   -4    0   12    2   -0.000040   -0.000519
   -4   -4    0   13    2   -0.000404   -0.000414
   -4   -4    0   14    2    0.000125    0.001087
   -4   -4    0   15    2   -0.000350    0.000150
   -4   -4    0   16    2   -0.000270   -0.001537
   -4   -4    0   17    2    0.000776    0.000261
   -4   -4    0   18    2   -0.000365   -0.000448
   -4   -4    0   19    2    0.000225   -0.000075
   -4   -4    0   20    2   -0.000116   -0.000296
   -4   -4    0   21    2   -0.000223   -0.000087
   -4   -4    0   22    2   -0.000192   -0.001235
   -4   -4    0   23    2   -0.000227   -0.000074
   -4   -4    0   24    2    0.000541   -0.001288
   -4   -4    0   25    2   -0.000352   -0.000201
   -4   -4    0   26    2    0.000471   -0.000105
   -4   -4    0   27    2    0.000587    0.000058
   -4   -4    0   28    2   -0.000024   -0.001217
   -4   -4    0   29    2   -0.000349    0.000002
   -4   -4    0   30    2    0.000693   -0.000019
   -4   -4    0   31    2    0.000363   -0.000006
   -4   -4    0   32    2    0.000284   -0.000158
   -4   -4    0    1    3   -0.001226   -0.000039
   -4   -4    0    2    3   -0.000182   -0.000202
   -4   -4    0    3    3   -0.002027   -0.000000
   -4   -4    0    4    3    0.000221   -0.000281
   -4   -4    0    5    3   -0.000393    0.000281
   -4   -4    0    6    3    0.000179    0.000300
   -4   -4    0    7    3   -0.001349   -0.000016
   -4   -4    0    8    3    0.000801    0.000067
   -4   -4    0    9    3    0.000716    0.000027
   -4   -4    0   10    3    0.000669    0.000037
   -4   -4    0   11    3   -0.000154   -0.000074
   -4   -4    0   12    3    0.000330    0.000048
   -4   -4    0   13    3   -0.001079   -0.000020
   -4   -4    0   14    3    0.000404    0.000042
   -4   -4    0   15    3    0.000067   -0.000212
   -4   -4    0   16    3    0.001018   -0.000482
   -4   -4    0   17    3   -0.000527   -0.000067
   -4   -4    0   18    3   -0.000769    0.000211
   -4   -4    0   19    3   -0.000113   -0.000039
   -4   -4    0   20    3   -0.000700    0.000181
   -4   -4    0   21    3    0.001268   -0.000019
   -4   -4    0   22    3   -0.000219   -0.000347
   -4   -4    0   23    3   -0.001293    0.000025
   -4   -4    0   24    3   -0.000061   -0.000393
   -4   -4    0   25    3   -0.001582    0.000042
   -4   -4    0   26    3   -0.000226    0.000030
   -4   -4    0   27    3    0.000039    0.000072
   -4   -4    0   28    3   -0.001588   -0.000040
   -4   -4    0   29    3   -0.000182    0.000010
   -4   -4    0   30    3    0.000349    0.000007
   -4   -4    0   31    3   -0.000561    0.000019
   -4   -4    0   32    3   -0.000616    0.000025
   -4   -4    0    1    4   -0.000213   -0.000288
   -4   -4    0    2    4   -0.000249    0.001143
   -4   -4    0    3    4    0.000221    0.000281
   -4   -4    0    4    4   -0.000224   -0.000000
   -4   -4    0    5    4   -0.000393   -0.000214
   -4   -4    0    6    4    0.000607    0.000129
   -4   -4    0    7    4    0.000786   -0.000066
   -4   -4    0    8    4   -0.000197   -0.000191
   -4   -4    0    9    4    0.000139   -0.000000
   -4   -4    0   10    4   -0.000510    0.000303
   -4   -4    0   11    4    0.000145   -0.000005
   -4   -4    0   12    4   -0.000121   -0.000364
   -4   -4    0   13    4    0.000966    0.000061
   -4   -4    0   14    4    0.000215    0.001171
   -4   -4    0   15    4    0.001248    0.000316
   -4   -4    0   16    4    0.000262   -0.000490
   -4   -4    0   17    4    0.000669    0.000283
   -4   -4    0   18    4   -0.000012   -0.000836
   -4   -4    0   19    4    0.000243    0.000015
   -4   -4    0   20    4    0.000548   -0.000344
   -4   -4    0   21    4   -0.000087   -0.000072
   -4   -4    0   22    4    0.000548   -0.001269
   -4   -4    0   23    4   -0.000095   -0.000071
   -4   -4    0   24    4    0.000986   -0.000695
   -4   -4    0   25    4    0.001053   -0.000220
   -4   -4    0   26    4    0.000398   -0.000458
   -4   -4    0   27    4   -0.000399   -0.000116
   -4   -4    0   28    4    0.000888   -0.000287
   -4   -4    0   29    4   -0.000617   -0.000065
   -4   -4    0   30    4   -0.000287   -0.000105
   -4   -4    0   31    4    0.000606    0.000041
   -4   -4    0   32    4    0.001155    0.000040
   -4   -4    0    1    5   -0.001071   -0.000014
   -4   -4    0    2    5   -0.000680    0.000112
   -4   -4    0    3    5   -0.000393   -0.000281
   -4   -4    0    4    5   -0.000393    0.000214
   -4   -4    0    5    5   -0.002024   -0.000000
   -4   -4    0    6    5   -0.000192   -0.000161
   -4   -4    0    7    5    0.001213   -0.000039
   -4   -4    0    8    5    0.000197   -0.000258
   -4   -4    0    9    5    0.000046    0.000393
   -4   -4    0   10    5   -0.000342    0.000365
   -4   -4    0   11    5   -0.001452    0.000037
   -4   -4    0   12    5   -0.001221   -0.000241
   -4   -4    0   13    5    0.000142    0.000100
   -4   -4    0   14    5    0.000681   -0.000013
   -4   -4    0   15    5    0.000714    0.000001
   -4   -4    0   16    5    0.000317    0.000063
   -4   -4    0   17    5    0.001323   -0.000026
   -4   -4    0   18    5   -0.000251   -0.000340
   -4   -4    0   19    5    0.001249   -0.000097
   -4   -4    0   20    5   -0.000082   -0.000363
   -4   -4    0   21    5   -0.000119   -0.000027
   -4   -4    0   22    5    0.000227   -0.000005
   -4   -4    0   23    5   -0.000560    0.000051
   -4   -4    0   24    5    0.000210   -0.000088
   -4   -4    0   25    5   -0.000566   -0.000018
   -4   -4    0   26    5    0.000378    0.000002
   -4   -4    0   27    5    0.000204    0.000009
   -4   -4    0   28    5   -0.000636    0.000061
   -4   -4    0   29    5   -0.000732    0.000176
   -4   -4    0   30    5    0.000785   -0.000116
   -4   -4    0   31    5    0.000645    0.000085
   -4   -4    0   32    5    0.000957   -0.000481
   -4   -4    0    1    6    0.000668    0.000093
   -4   -4    0    2    6   -0.000129    0.000094
   -4   -4    0    3    6    0.000179   -0.000300
   -4   -4    0    4    6    0.000607   -0.000129
   -4   -4    0    5    6   -0.000192    0.000161
   -4   -4    0    6    6   -0.000097   -0.000000
   -4   -4    0    7    6   -0.000186    0.000164
   -4   -4    0    8    6   -0.000251   -0.001182
   -4   -4    0    9    6    0.000402    0.000369
   -4   -4    0   10    6    0.000124    0.001009
   -4   -4    0   11    6   -0.000341    0.000141
   -4   -4    0   12    6   -0.000213   -0.001412
   -4   -4    0   13    6   -0.000009    0.000060
   -4   -4    0   14    6    0.000217    0.000429
   -4   -4    0   15    6    0.000005   -0.000055
   -4   -4    0   16    6   -0.000095   -0.000526
   -4   -4    0   17    6    0.000248    0.000083
   -4   -4    0   18    6   -0.000220   -0.001230
   -4   -4    0   19    6   -0.000243   -0.000074
   -4   -4    0   20    6    0.000468   -0.001273
   -4   -4    0   21    6   -0.000774   -0.000261
   -4   -4    0   22    6   -0.000392   -0.000496
   -4   -4    0   23    6    0.000222   -0.000072
   -4   -4    0   24    6   -0.000137   -0.000204
   -4   -4    0   25    6    0.000367    0.000009
   -4   -4    0   26    6    0.000758    0.000019
   -4   -4    0   27    6    0.000379   -0.000008
   -4   -4    0   28    6    0.000177   -0.000140
   -4   -4    0   29    6    0.000364    0.000206
   -4   -4    0   30    6    0.000495   -0.000067
   -4   -4    0   31    6    0.000567    0.000051
   -4   -4    0   32    6   -0.000015   -0.001158
   -4   -4    0    1    7    0.000389   -0.000253
   -4   -4    0    2    7    0.000181    0.000357
   -4   -4    0    3    7   -0.001349    0.000016
   -4   -4    0    4    7    0.000786    0.000066
   -4   -4    0    5    7    0.001213    0.000039
   -4   -4    0    6    7   -0.000186   -0.000164
   -4   -4    0    7    7   -0.002023   -0.000000
   -4   -4    0    8    7    0.000205   -0.000248
   -4   -4    0    9    7    0.001095   -0.000011
   -4   -4    0   10    7    0.000414    0.000016
   -4   -4    0   11    7    0.000053   -0.000207
   -4   -4    0   12    7    0.000997   -0.000464
   -4   -4    0   13    7   -0.000709   -0.000048
   -4   -4    0   14    7    0.000682    0.000008
   -4   -4    0   15    7   -0.000136   -0.000099
   -4   -4    0   16    7    0.000315    0.000072
   -4   -4    0   17    7   -0.001253    0.000017
   -4   -4    0   18    7   -0.000233   -0.000348
   -4   -4    0   19    7   -0.001317    0.000024
   -4   -4    0   20    7   -0.000077   -0.000364
   -4   -4    0   21    7    0.000522    0.000093
   -4   -4    0   22    7   -0.000787    0.000195
   -4   -4    0   23    7   -0.000119   -0.000048
   -4   -4    0   24    7   -0.000705    0.000218
   -4   -4    0   25    7    0.000200    0.000021
   -4   -4    0   26    7    0.000374    0.000010
   -4   -4    0   27    7   -0.000565   -0.000022
   -4   -4    0   28    7   -0.000639    0.000034
   -4   -4    0   29    7    0.001607   -0.000061
   -4   -4    0   30    7   -0.000222    0.000018
   -4   -4    0   31    7    0.000051    0.000045
   -4   -4    0   32    7   -0.001584   -0.000001
   -4   -4    0    1    8    0.000406    0.000148
   -4   -4    0    2    8    0.000575    0.000281
   -4   -4    0    3    8    0.000801   -0.000067
   -4   -4    0    4    8   -0.000197    0.000191
   -4   -4    0    5    8    0.000197    0.000258
   -4   -4    0    6    8   -0.000251    0.001182
   -4   -4    0    7    8    0.000205    0.000248
   -4   -4    0    8    8   -0.000360   -0.000000
   -4   -4    0    9    8   -0.000974   -0.000121
   -4   -4    0   10    8    0.000236    0.001032
   -4   -4    0   11    8    0.001239    0.000262
   -4   -4    0   12    8    0.000234   -0.000284
   -4   -4    0   13    8   -0.000134   -0.000036
   -4   -4    0   14    8   -0.000535    0.000248
   -4   -4    0   15    8    0.000130    0.000030
   -4   -4    0   16    8   -0.000234   -0.000247
   -4   -4    0   17    8    0.000094    0.000098
   -4   -4    0   18    8    0.000458   -0.001242
   -4   -4    0   19    8   -0.000104   -0.000097
   -4   -4    0   20    8    0.000867   -0.000674
   -4   -4    0   21    8   -0.000687   -0.000245
   -4   -4    0   22    8   -0.000106   -0.000717
   -4   -4    0   23    8    0.000237    0.000031
   -4   -4    0   24    8    0.000460   -0.000168
   -4   -4    0   25    8    0.000638    0.000033
   -4   -4    0   26    8   -0.000173   -0.000193
   -4   -4    0   27    8    0.000634    0.000022
   -4   -4    0   28    8    0.000935   -0.000039
   -4   -4    0   29    8   -0.001059    0.000249
   -4   -4    0   30    8    0.000494   -0.000456
   -4   -4    0   31    8   -0.000394   -0.000128
   -4   -4    0   32    8    0.000845   -0.000108
   -4   -4    0    1    9    0.000153   -0.000072
   -4   -4    0    2    9    0.000017    0.000045
   -4   -4    0    3    9    0.000716   -0.000027
   -4   -4    0    4    9    0.000139    0.000000
   -4   -4    0    5    9    0.000046   -0.000393
   -4   -4    0    6    9    0.000402   -0.000369
   -4   -4    0    7    9    0.001095    0.000011
   -4   -4    0    8    9   -0.000974    0.000121
   -4   -4    0    9    9   -0.002050   -0.000000
   -4   -4    0   10    9   -0.000204   -0.000002
   -4   -4    0   11    9    0.001224   -0.000037
   -4   -4    0   12    9   -0.000192   -0.000132
   -4   -4    0   13    9    0.000297    0.000012
   -4   -4    0   14    9   -0.000726    0.000022
   -4   -4    0   15    9    0.000185    0.000113
   -4   -4    0   16    9    0.000023    0.000134
   -4   -4    0   17    9   -0.000059    0.000088
   -4   -4    0   18    9    0.000567   -0.000184
   -4   -4    0   19    9    0.000645   -0.000064
   -4   -4    0   20    9   -0.000378   -0.000305
   -4   -4    0   21    9   -0.000554   -0.000022
   -4   -4    0   22    9    0.000350    0.000058
   -4   -4    0   23    9    0.000183    0.000011
   -4   -4    0   24    9    0.000615   -0.000055
   -4   -4    0   25    9   -0.000123    0.000040
   -4   -4    0   26    9   -0.000772    0.000260
   -4   -4    0   27    9    0.000520   -0.000079
   -4   -4    0   28    9    0.000686   -0.000257
   -4   -4    0   29    9   -0.001867    0.000042
   -4   -4    0   30    9    0.000152    0.000234
   -4   -4    0   31    9   -0.001407    0.000134
   -4   -4    0   32    9    0.000885   -0.000337
   -4   -4    0    1   10   -0.000676    0.000009
   -4   -4    0    2   10    0.000232   -0.000505
   -4   -4    0    3   10    0.000669   -0.000037
   -4   -4    0    4   10   -0.000510   -0.000303
   -4   -4    0    5   10   -0.000342   -0.000365
   -4   -4    0    6   10    0.000124   -0.001009
   -4   -4    0    7   10    0.000414   -0.000016
   -4   -4    0    8   10    0.000236   -0.001032
   -4   -4    0    9   10   -0.000204    0.000002
   -4   -4    0   10   10   -0.000056   -0.000000
   -4   -4    0   11   10   -0.000202    0.000004
   -4   -4    0   12   10    0.000202   -0.000576
   -4   -4    0   13   10    0.000712    0.000048
   -4   -4    0   14   10   -0.000060   -0.000017
   -4   -4    0   15   10    0.000561    0.000174
   -4   -4    0   16   10    0.000116    0.000020
   -4   -4    0   17   10    0.000199   -0.000015
   -4   -4    0   18   10    0.000401    0.000149
   -4   -4    0   19   10    0.000793    0.000267
   -4   -4    0   20   10    0.000413   -0.001175
   -4   -4    0   21   10    0.000358   -0.000045
   -4   -4    0   22   10    0.000619    0.000018
   -4   -4    0   23   10    0.000349   -0.000063
   -4   -4    0   24   10   -0.000297   -0.000641
   -4   -4    0   25   10    0.000210    0.000001
   -4   -4    0   26   10   -0.000397    0.000475
   -4   -4    0   27   10   -0.000791   -0.000204
   -4   -4    0   28   10    0.000092   -0.000749
   -4   -4    0   29   10   -0.000144   -0.000252
   -4   -4    0   30   10   -0.000328    0.001112
   -4   -4    0   31   10    0.000141    0.000243
   -4   -4    0   32   10    0.000910   -0.001116
   -4   -4    0    1   11   -0.000718   -0.000015
   -4   -4    0    2   11    0.000005    0.000053
   -4   -4    0    3   11   -0.000154    0.000074
   -4   -4    0    4   11    0.000145    0.000005
   -4   -4    0    5   11   -0.001452   -0.000037
   -4   -4    0    6   11   -0.000341   -0.000141
   -4   -4    0    7   11    0.000053    0.000207
   -4   -4    0    8   11    0.001239   -0.000262
   -4   -4    0    9   11    0.001224    0.000037
   -4   -4    0   10   11   -0.000202   -0.000004
   -4   -4    0   11   11   -0.002046   -0.000000
   -4   -4    0   12   11   -0.000189   -0.000138
   -4   -4    0   13   11   -0.000177    0.000115
   -4   -4    0   14   11    0.000542   -0.000169
   -4   -4    0   15   11    0.000065   -0.000000
   -4   -4    0   16   11    0.000421    0.000058
   -4   -4    0   17   11    0.001588    0.000186
   -4   -4    0   18   11   -0.000360   -0.000070
   -4   -4    0   19   11    0.000736    0.000116
   -4   -4    0   20   11    0.001086   -0.000333
   -4   -4    0   21   11    0.000184    0.000021
   -4   -4    0   22   11    0.000363    0.000062
   -4   -4    0   23   11   -0.000553   -0.000019
   -4   -4    0   24   11    0.000604   -0.000032
   -4   -4    0   25   11   -0.000562   -0.000082
   -4   -4    0   26   11    0.000235    0.000071
   -4   -4    0   27   11   -0.000111    0.000057
   -4   -4    0   28   11   -0.000237    0.000036
   -4   -4    0   29   11    0.001412   -0.000051
   -4   -4    0   30   11    0.000136    0.000243
   -4   -4    0   31   11    0.001863   -0.000044
   -4   -4    0   32   11    0.000891   -0.000314
   -4   -4    0    1   12   -0.000342    0.000034
   -4   -4    0    2   12   -0.000040    0.000519
   -4   -4    0    3   12    0.000330   -0.000048
   -4   -4    0    4   12   -0.000121    0.000364
   -4   -4    0    5   12   -0.001221    0.000241
   -4   -4    0    6   12   -0.000213    0.001412
   -4   -4    0    7   12    0.000997    0.000464
   -4   -4    0    8   12    0.000234    0.000284
   -4   -4    0    9   12   -0.000192    0.000132
   -4   -4    0   10   12    0.000202    0.000576
   -4   -4    0   11   12   -0.000189    0.000138
   -4   -4    0   12   12   -0.000261   -0.000000
   -4   -4    0   13   12   -0.000001    0.000122
   -4   -4    0   14   12    0.000051    0.000093
   -4   -4    0   15   12    0.000428    0.000008
   -4   -4    0   16   12    0.000286   -0.000088
   -4   -4    0   17   12    0.001600    0.000381
   -4   -4    0   18   12   -0.000006   -0.000975
   -4   -4    0   19   12    0.000948   -0.000090
   -4   -4    0   20   12    0.000872   -0.000440
   -4   -4    0   21   12   -0.000603   -0.000028
   -4   -4    0   22   12    0.000293   -0.000589
   -4   -4    0   23   12   -0.000614   -0.000017
   -4   -4    0   24   12    0.001037   -0.000041
   -4   -4    0   25   12   -0.000216   -0.000089
   -4   -4    0   26   12    0.000143   -0.000233
   -4   -4    0   27   12    0.000702    0.000201
   -4   -4    0   28   12    0.000453    0.000123
   -4   -4    0   29   12   -0.000871    0.000245
   -4   -4    0   30   12    0.000943   -0.000951
   -4   -4    0   31   12    0.000860   -0.000268
   -4   -4    0   32   12    0.001547    0.000152
   -4   -4    0    1   13    0.000078   -0.000388
   -4   -4    0    2   13   -0.000404    0.000414
   -4   -4    0    3   13   -0.001079    0.000020
   -4   -4    0    4   13    0.000966   -0.000061
   -4   -4    0    5   13    0.000142   -0.000100
   -4   -4    0    6   13   -0.000009   -0.000060
   -4   -4    0    7   13   -0.000709    0.000048
   -4   -4    0    8   13   -0.000134    0.000036
   -4   -4    0    9   13    0.000297   -0.000012
   -4   -4    0   10   13    0.000712   -0.000048
   -4   -4    0   11   13   -0.000177   -0.000115
   -4   -4    0   12   13   -0.000001   -0.000122
   -4   -4    0   13   13   -0.002030   -0.000000
   -4   -4    0   14   13    0.000191   -0.000034
   -4   -4    0   15   13   -0.001212    0.000036
   -4   -4    0   16   13    0.000187    0.000170
   -4   -4    0   17   13   -0.000572    0.000018
   -4   -4    0   18   13   -0.000351   -0.000047
   -4   -4    0   19   13   -0.000197    0.000021
   -4   -4    0   20   13   -0.000614    0.000025
   -4   -4    0   21   13   -0.000046    0.000108
   -4   -4    0   22   13   -0.000593    0.000185
   -4   -4    0   23   13   -0.000637    0.000033
   -4   -4    0   24   13    0.000385    0.000318
   -4   -4    0   25   13   -0.001820    0.000040
   -4   -4    0   26   13   -0.000126   -0.000234
   -4   -4    0   27   13    0.001385   -0.000133
   -4   -4    0   28   13   -0.000891    0.000330
   -4   -4    0   29   13   -0.000114    0.000008
   -4   -4    0   30   13    0.000770   -0.000258
   -4   -4    0   31   13   -0.000530    0.000076
   -4   -4    0   32   13   -0.000677    0.000266
   -4   -4    0    1   14    0.000338    0.000400
   -4   -4    0    2   14    0.000125   -0.001087
   -4   -4    0    3   14    0.000404   -0.000042
   -4   -4    0    4   14    0.000215   -0.001171
   -4   -4    0    5   14    0.000681    0.000013
   -4   -4    0    6   14    0.000217   -0.000429
   -4   -4    0    7   14    0.000682   -0.000008
   -4   -4    0    8   14   -0.000535   -0.000248
   -4   -4    0    9   14   -0.000726   -0.000022
   -4   -4    0   10   14   -0.000060    0.000017
   -4   -4    0   11   14    0.000542    0.000169
   -4   -4    0   12   14    0.000051   -0.000093
   -4   -4    0   13   14    0.000191    0.000034
   -4   -4    0   14   14   -0.000010   -0.000000
   -4   -4    0   15   14   -0.000196   -0.000027
   -4   -4    0   16   14    0.000204   -0.000547
   -4   -4    0   17   14   -0.000361    0.000058
   -4   -4    0   18   14    0.000599   -0.000018
   -4   -4    0   19   14    0.000355   -0.000064
   -4   -4    0   20   14   -0.000307   -0.000561
   -4   -4    0   21   14   -0.000221    0.000005
   -4   -4    0   22   14    0.000372    0.000224
   -4   -4    0   23   14    0.000764    0.000274
   -4   -4    0   24   14    0.000374   -0.001143
   -4   -4    0   25   14    0.000123    0.000256
   -4   -4    0   26   14   -0.000330    0.001102
   -4   -4    0   27   14    0.000130    0.000257
   -4   -4    0   28   14    0.000915   -0.001001
   -4   -4    0   29   14   -0.000230   -0.000008
   -4   -4    0   30   14   -0.000360    0.000469
   -4   -4    0   31   14   -0.000770   -0.000206
   -4   -4    0   32   14    0.000025   -0.000805
   -4   -4    0    1   15    0.001452    0.000054
   -4   -4    0    2   15   -0.000350   -0.000150
   -4   -4    0    3   15    0.000067    0.000212
   -4   -4    0    4   15    0.001248   -0.000316
   -4   -4    0    5   15    0.000714   -0.000001
   -4   -4    0    6   15    0.000005    0.000055
   -4   -4    0    7   15   -0.000136    0.000099
   -4   -4    0    8   15    0.000130   -0.000030
   -4   -4    0    9   15    0.000185   -0.000113
   -4   -4    0   10   15    0.000561   -0.000174
   -4   -4    0   11   15    0.000065    0.000000
   -4   -4    0   12   15    0.000428   -0.000008
   -4   -4    0   13   15   -0.001212   -0.000036
   -4   -4    0   14   15   -0.000196    0.000027
   -4   -4    0   15   15   -0.002031   -0.000000
   -4   -4    0   16   15   -0.000182   -0.000172
   -4   -4    0   17   15   -0.000201    0.000009
   -4   -4    0   18   15    0.000360    0.000063
   -4   -4    0   19   15   -0.000571    0.000022
   -4   -4    0   20   15    0.000610   -0.000016
   -4   -4    0   21   15   -0.001567   -0.000164
   -4   -4    0   22   15   -0.000344   -0.000068
   -4   -4    0   23   15    0.000740    0.000096
   -4   -4    0   24   15    0.001086   -0.000359
   -4   -4    0   25   15   -0.001390    0.000050
   -4   -4    0   26   15    0.000118    0.000232
   -4   -4    0   27   15    0.001824   -0.000043
   -4   -4    0   28   15    0.000903   -0.000306
   -4   -4    0   29   15    0.000560    0.000031
   -4   -4    0   30   15    0.000218    0.000077
   -4   -4    0   31   15   -0.000123    0.000027
   -4   -4    0   32   15   -0.000239    0.000009
   -4   -4    0    1   16    0.001209   -0.000287
   -4   -4    0    2   16   -0.000270    0.001537
   -4   -4    0    3   16    0.001018    0.000482
   -4   -4    0    4   16    0.000262    0.000490
   -4   -4    0    5   16    0.000317   -0.000063
   -4   -4    0    6   16   -0.000095    0.000526
   -4   -4    0    7   16    0.000315   -0.000072
   -4   -4    0    8   16   -0.000234    0.000247
   -4   -4    0    9   16    0.000023   -0.000134
   -4   -4    0   10   16    0.000116   -0.000020
   -4   -4    0   11   16    0.000421   -0.000058
   -4   -4    0   12   16    0.000286    0.000088
   -4   -4    0   13   16    0.000187   -0.000170
   -4   -4    0   14   16    0.000204    0.000547
   -4   -4    0   15   16   -0.000182    0.000172
   -4   -4    0   16   16   -0.000330   -0.000000
   -4   -4    0   17   16    0.000611    0.000053
   -4   -4    0   18   16    0.000311   -0.000613
   -4   -4    0   19   16   -0.000615   -0.000028
   -4   -4    0   20   16    0.001009    0.000040
   -4   -4    0   21   16   -0.001605   -0.000339
   -4   -4    0   22   16    0.000022   -0.000921
   -4   -4    0   23   16    0.000946   -0.000056
   -4   -4    0   24   16    0.000903   -0.000281
   -4   -4    0   25   16    0.000877   -0.000242
   -4   -4    0   26   16    0.000920   -0.001010
   -4   -4    0   27   16    0.000873   -0.000266
   -4   -4    0   28   16    0.001501    0.000132
   -4   -4    0   29   16    0.000230    0.000106
   -4   -4    0   30   16    0.000111   -0.000267
   -4   -4    0   31   16    0.000697    0.000199
   -4   -4    0   32   16    0.000556    0.000386
   -4   -4    0    1   17   -0.000118    0.000021
   -4   -4    0    2   17    0.000776   -0.000261
   -4   -4    0    3   17   -0.000527    0.000067
   -4   -4    0    4   17    0.000669   -0.000283
   -4   -4    0    5   17    0.001323    0.000026
   -4   -4    0    6   17    0.000248   -0.000083
   -4   -4    0    7   17   -0.001253   -0.000017
   -4   -4    0    8   17    0.000094   -0.000098
   -4   -4    0    9   17   -0.000059   -0.000088
   -4   -4    0   10   17    0.000199    0.000015
   -4   -4    0   11   17    0.001588   -0.000186
   -4   -4    0   12   17    0.001600   -0.000381
   -4   -4    0   13   17   -0.000572   -0.000018
   -4   -4    0   14   17   -0.000361   -0.000058
   -4   -4    0   15   17   -0.000201   -0.000009
   -4   -4    0   16   17    0.000611   -0.000053
   -4   -4    0   17   17   -0.002038   -0.000000
   -4   -4    0   18   17    0.000197   -0.000032
   -4   -4    0   19   17   -0.001211    0.000038
   -4   -4    0   20   17   -0.000186   -0.000157
   -4   -4    0   21   17    0.001336   -0.000020
   -4   -4    0   22   17   -0.000216   -0.000146
   -4   -4    0   23   17    0.000373   -0.000246
   -4   -4    0   24   17   -0.000810    0.000135
   -4   -4    0   25   17    0.000142    0.000015
   -4   -4    0   26   17   -0.000672    0.000034
   -4   -4    0   27   17   -0.000709    0.000108
   -4   -4    0   28   17   -0.000350   -0.000016
   -4   -4    0   29   17    0.000053   -0.000388
   -4   -4    0   30   17   -0.000405    0.000406
   -4   -4    0   31   17   -0.001093    0.000020
   -4   -4    0   32   17   -0.000964    0.000081
   -4   -4    0    1   18   -0.000221   -0.000004
   -4   -4    0    2   18   -0.000365    0.000448
   -4   -4    0    3   18   -0.000769   -0.000211
   -4   -4    0    4   18   -0.000012    0.000836
   -4   -4    0    5   18   -0.000251    0.000340
   -4   -4    0    6   18   -0.000220    0.001230
   -4   -4    0    7   18   -0.000233    0.000348
   -4   -4    0    8   18    0.000458    0.001242
   -4   -4    0    9   18    0.000567    0.000184
   -4   -4    0   10   18    0.000401   -0.000149
   -4   -4    0   11   18   -0.000360    0.000070
   -4   -4    0   12   18   -0.000006    0.000975
   -4   -4    0   13   18   -0.000351    0.000047
   -4   -4    0   14   18    0.000599    0.000018
   -4   -4    0   15   18    0.000360   -0.000063
   -4   -4    0   16   18    0.000311    0.000613
   -4   -4    0   17   18    0.000197    0.000032
   -4   -4    0   18   18   -0.000015   -0.000000
   -4   -4    0   19   18   -0.000197   -0.000030
   -4   -4    0   20   18   -0.000199    0.000532
   -4   -4    0   21   18    0.000189   -0.000095
   -4   -4    0   22   18    0.000014    0.000101
   -4   -4    0   23   18   -0.000659    0.000053
   -4   -4    0   24   18    0.000683    0.000579
   -4   -4    0   25   18    0.000017   -0.000223
   -4   -4    0   26   18    0.000206   -0.000559
   -4   -4    0   27   18    0.000009   -0.000218
   -4   -4    0   28   18    0.000006    0.000511
   -4   -4    0   29   18    0.000342    0.000392
   -4   -4    0   30   18    0.000133   -0.001085
   -4   -4    0   31   18    0.000406   -0.000051
   -4   -4    0   32   18   -0.000204    0.001166
   -4   -4    0    1   19    0.000561    0.000068
   -4   -4    0    2   19    0.000225    0.000075
   -4   -4    0    3   19   -0.000113    0.000039
   -4   -4    0    4   19    0.000243   -0.000015
   -4   -4    0    5   19    0.001249    0.000097
   -4   -4    0    6   19   -0.000243    0.000074
   -4   -4    0    7   19   -0.001317   -0.000024
   -4   -4    0    8   19   -0.000104    0.000097
   -4   -4    0    9   19    0.000645    0.000064
   -4   -4    0   10   19    0.000793   -0.000267
   -4   -4    0   11   19    0.000736   -0.000116
   -4   -4    0   12   19    0.000948    0.000090
   -4   -4    0   13   19   -0.000197   -0.000021
   -4   -4    0   14   19    0.000355    0.000064
   -4   -4    0   15   19   -0.000571   -0.000022
   -4   -4    0   16   19   -0.000615    0.000028
   -4   -4    0   17   19   -0.001211   -0.000038
   -4   -4    0   18   19   -0.000197    0.000030
   -4   -4    0   19   19   -0.002037   -0.000000
   -4   -4    0   20   19    0.000181    0.000167
   -4   -4    0   21   19   -0.000375   -0.000279
   -4   -4    0   22   19   -0.000651   -0.000032
   -4   -4    0   23   19    0.001080    0.000020
   -4   -4    0   24   19   -0.000374    0.000111
   -4   -4    0   25   19    0.000710   -0.000061
   -4   -4    0   26   19    0.000674   -0.000014
   -4   -4    0   27   19   -0.000136   -0.000013
   -4   -4    0   28   19    0.000349    0.000025
   -4   -4    0   29   19    0.001455    0.000054
   -4   -4    0   30   19   -0.000352   -0.000161
   -4   -4    0   31   19    0.000043    0.000214
   -4   -4    0   32   19   -0.001242    0.000311
   -4   -4    0    1   20   -0.000228   -0.000110
   -4   -4    0    2   20   -0.000116    0.000296
   -4   -4    0    3   20   -0.000700   -0.000181
   -4   -4    0    4   20    0.000548    0.000344
   -4   -4    0    5   20   -0.000082    0.000363
   -4   -4    0    6   20    0.000468    0.001273
   -4   -4    0    7   20   -0.000077    0.000364
   -4   -4    0    8   20    0.000867    0.000674
   -4   -4    0    9   20   -0.000378    0.000305
   -4   -4    0   10   20    0.000413    0.001175
   -4   -4    0   11   20    0.001086    0.000333
   -4   -4    0   12   20    0.000872    0.000440
   -4   -4    0   13   20   -0.000614   -0.000025
   -4   -4    0   14   20   -0.000307    0.000561
   -4   -4    0   15   20    0.000610    0.000016
   -4   -4    0   16   20    0.001009   -0.000040
   -4   -4    0   17   20   -0.000186    0.000157
   -4   -4    0   18   20   -0.000199   -0.000532
   -4   -4    0   19   20    0.000181   -0.000167
   -4   -4    0   20   20   -0.000326   -0.000000
   -4   -4    0   21   20    0.000810    0.000141
   -4   -4    0   22   20    0.000648   -0.000371
   -4   -4    0   23   20   -0.000398   -0.000038
   -4   -4    0   24   20   -0.000184    0.000200
   -4   -4    0   25   20    0.000160   -0.000185
   -4   -4    0   26   20   -0.000457   -0.000923
   -4   -4    0   27   20    0.000150   -0.000192
   -4   -4    0   28   20   -0.000233    0.000339
   -4   -4    0   29   20   -0.001206    0.000293
   -4   -4    0   30   20    0.000264   -0.001543
   -4   -4    0   31   20   -0.001011   -0.000501
   -4   -4    0   32   20    0.000254    0.000494
   -4   -4    0    1   21    0.001291    0.000026
   -4   -4    0    2   21   -0.000223    0.000087
   -4   -4    0    3   21    0.001268    0.000019
   -4   -4    0    4   21   -0.000087    0.000072
   -4   -4    0    5   21   -0.000119    0.000027
   -4   -4    0    6   21   -0.000774    0.000261
   -4   -4    0    7   21    0.000522   -0.000093
   -4   -4    0    8   21   -0.000687    0.000245
   -4   -4    0    9   21   -0.000554    0.000022
   -4   -4    0   10   21    0.000358    0.000045
   -4   -4    0   11   21    0.000184   -0.000021
   -4   -4    0   12   21   -0.000603    0.000028
   -4   -4    0   13   21   -0.000046   -0.000108
   -4   -4    0   14   21   -0.000221   -0.000005
   -4   -4    0   15   21   -0.001567    0.000164
   -4   -4    0   16   21   -0.001605    0.000339
   -4   -4    0   17   21    0.001336    0.000020
   -4   -4    0   18   21    0.000189    0.000095
   -4   -4    0   19   21   -0.000375    0.000279
   -4   -4    0   20   21    0.000810   -0.000141
   -4   -4    0   21   21   -0.002038   -0.000000
   -4   -4    0   22   21   -0.000196    0.000000
   -4   -4    0   23   21    0.001225   -0.000038
   -4   -4    0   24   21    0.000193    0.000141
   -4   -4    0   25   21    0.000064   -0.000393
   -4   -4    0   26   21    0.000400   -0.000377
   -4   -4    0   27   21    0.001084    0.000010
   -4   -4    0   28   21    0.000979   -0.000106
   -4   -4    0   29   21    0.000154   -0.000016
   -4   -4    0   30   21    0.000684   -0.000015
   -4   -4    0   31   21    0.000712   -0.000126
   -4   -4    0   32   21    0.000350   -0.000014
   -4   -4    0    1   22    0.000229   -0.000334
   -4   -4    0    2   22   -0.000192    0.001235
   -4   -4    0    3   22   -0.000219    0.000347
   -4   -4    0    4   22    0.000548    0.001269
   -4   -4    0    5   22    0.000227    0.000005
   -4   -4    0    6   22   -0.000392    0.000496
   -4   -4    0    7   22   -0.000787   -0.000195
   -4   -4    0    8   22   -0.000106    0.000717
   -4   -4    0    9   22    0.000350   -0.000058
   -4   -4    0   10   22    0.000619   -0.000018
   -4   -4    0   11   22    0.000363   -0.000062
   -4   -4    0   12   22    0.000293    0.000589
   -4   -4    0   13   22   -0.000593   -0.000185
   -4   -4    0   14   22    0.000372   -0.000224
   -4   -4    0   15   22   -0.000344    0.000068
   -4   -4    0   16   22    0.000022    0.000921
   -4   -4    0   17   22   -0.000216    0.000146
   -4   -4    0   18   22    0.000014   -0.000101
   -4   -4    0   19   22   -0.000651    0.000032
   -4   -4    0   20   22    0.000648    0.000371
   -4   -4    0   21   22   -0.000196   -0.000000
   -4   -4    0   22   22   -0.000050   -0.000000
   -4   -4    0   23   22   -0.000201    0.000008
   -4   -4    0   24   22   -0.000207    0.000592
   -4   -4    0   25   22   -0.000340   -0.000371
   -4   -4    0   26   22    0.000106   -0.001011
   -4   -4    0   27   22    0.000414   -0.000006
   -4   -4    0   28   22   -0.000244    0.001036
   -4   -4    0   29   22   -0.000011    0.000207
   -4   -4    0   30   22    0.000222   -0.000457
   -4   -4    0   31   22   -0.000006   -0.000215
   -4   -4    0   32   22    0.000037    0.000492
   -4   -4    0    1   23   -0.001264   -0.000099
   -4   -4    0    2   23   -0.000227    0.000074
   -4   -4    0    3   23   -0.001293   -0.000025
   -4   -4    0    4   23   -0.000095    0.000071
   -4   -4    0    5   23   -0.000560   -0.000051
   -4   -4    0    6   23    0.000222    0.000072
   -4   -4    0    7   23   -0.000119    0.000048
   -4   -4    0    8   23    0.000237   -0.000031
   -4   -4    0    9   23    0.000183   -0.000011
   -4   -4    0   10   23    0.000349    0.000063
   -4   -4    0   11   23   -0.000553    0.000019
   -4   -4    0   12   23   -0.000614    0.000017
   -4   -4    0   13   23   -0.000637   -0.000033
   -4   -4    0   14   23    0.000764   -0.000274
   -4   -4    0   15   23    0.000740   -0.000096
   -4   -4    0   16   23    0.000946    0.000056
   -4   -4    0   17   23    0.000373    0.000246
   -4   -4    0   18   23   -0.000659   -0.000053
   -4   -4    0   19   23    0.001080   -0.000020
   -4   -4    0   20   23   -0.000398    0.000038
   -4   -4    0   21   23    0.001225    0.000038
   -4   -4    0   22   23   -0.000201   -0.000008
   -4   -4    0   23   23   -0.002042   -0.000000
   -4   -4    0   24   23    0.000188    0.000147
   -4   -4    0   25   23   -0.001448   -0.000038
   -4   -4    0   26   23   -0.000340   -0.000131
   -4   -4    0   27   23    0.000071    0.000206
   -4   -4    0   28   23   -0.001246    0.000259
   -4   -4    0   29   23   -0.000716    0.000084
   -4   -4    0   30   23    0.000677    0.000012
   -4   -4    0   31   23   -0.000155    0.000015
   -4   -4    0   32   23    0.000339    0.000001
   -4   -4    0    1   24    0.000068   -0.000394
   -4   -4    0    2   24    0.000541    0.001288
   -4   -4    0    3   24   -0.000061    0.000393
   -4   -4    0    4   24    0.000986    0.000695
   -4   -4    0    5   24    0.000210    0.000088
   -4   -4    0    6   24   -0.000137    0.000204
   -4   -4    0    7   24   -0.000705   -0.000218
   -4   -4    0    8   24    0.000460    0.000168
   -4   -4    0    9   24    0.000615    0.000055
   -4   -4    0   10   24   -0.000297    0.000641
   -4   -4    0   11   24    0.000604    0.000032
   -4   -4    0   12   24    0.001037    0.000041
   -4   -4    0   13   24    0.000385   -0.000318
   -4   -4    0   14   24    0.000374    0.001143
   -4   -4    0   15   24    0.001086    0.000359
   -4   -4    0   16   24    0.000903    0.000281
   -4   -4    0   17   24   -0.000810   -0.000135
   -4   -4    0   18   24    0.000683   -0.000579
   -4   -4    0   19   24   -0.000374   -0.000111
   -4   -4    0   20   24   -0.000184   -0.000200
   -4   -4    0   21   24    0.000193   -0.000141
   -4   -4    0   22   24   -0.000207   -0.000592
   -4   -4    0   23   24    0.000188   -0.000147
   -4   -4    0   24   24   -0.000265   -0.000000
   -4   -4    0   25   24    0.001222   -0.000240
   -4   -4    0   26   24    0.000215   -0.001408
   -4   -4    0   27   24   -0.001005   -0.000450
   -4   -4    0   28   24    0.000233    0.000281
   -4   -4    0   29   24   -0.000139    0.000221
   -4   -4    0   30   24   -0.000471   -0.000852
   -4   -4    0   31   24    0.000140   -0.000225
   -4   -4    0   32   24   -0.000102    0.000193
   -4   -4    0    1   25   -0.000734   -0.000151
   -4   -4    0    2   25   -0.000352    0.000201
   -4   -4    0    3   25   -0.001582   -0.000042
   -4   -4    0    4   25    0.001053    0.000220
   -4   -4    0    5   25   -0.000566    0.000018
   -4   -4    0    6   25    0.000367   -0.000009
   -4   -4    0    7   25    0.000200   -0.000021
   -4   -4    0    8   25    0.000638   -0.000033
   -4   -4    0    9   25   -0.000123   -0.000040
   -4   -4    0   10   25    0.000210   -0.000001
   -4   -4    0   11   25   -0.000562    0.000082
   -4   -4    0   12   25   -0.000216    0.000089
   -4   -4    0   13   25   -0.001820   -0.000040
   -4   -4    0   14   25    0.000123   -0.000256
   -4   -4    0   15   25   -0.001390   -0.000050
   -4   -4    0   16   25    0.000877    0.000242
   -4   -4    0   17   25    0.000142   -0.000015
   -4   -4    0   18   25    0.000017    0.000223
   -4   -4    0   19   25    0.000710    0.000061
   -4   -4    0   20   25    0.000160    0.000185
   -4   -4    0   21   25    0.000064    0.000393
   -4   -4    0   22   25   -0.000340    0.000371
   -4   -4    0   23   25   -0.001448    0.000038
   -4   -4    0   24   25    0.001222    0.000240
   -4   -4    0   25   25   -0.002016   -0.000000
   -4   -4    0   26   25   -0.000185   -0.000160
   -4   -4    0   27   25    0.001214   -0.000037
   -4   -4    0   28   25   -0.000200    0.000245
   -4   -4    0   29   25   -0.000047    0.000005
   -4   -4    0   30   25    0.000530   -0.000189
   -4   -4    0   31   25    0.000182   -0.000134
   -4   -4    0   32   25    0.000442    0.000131
   -4   -4    0    1   26   -0.000741   -0.000130
   -4   -4    0    2   26    0.000471    0.000105
   -4   -4    0    3   26   -0.000226   -0.000030
   -4   -4    0    4   26    0.000398    0.000458
   -4   -4    0    5   26    0.000378   -0.000002
   -4   -4    0    6   26    0.000758   -0.000019
   -4   -4    0    7   26    0.000374   -0.000010
   -4   -4    0    8   26   -0.000173    0.000193
   -4   -4    0    9   26   -0.000772   -0.000260
   -4   -4    0   10   26   -0.000397   -0.000475
   -4   -4    0   11   26    0.000235   -0.000071
   -4   -4    0   12   26    0.000143    0.000233
   -4   -4    0   13   26   -0.000126    0.000234
   -4   -4    0   14   26   -0.000330   -0.001102
   -4   -4    0   15   26    0.000118   -0.000232
   -4   -4    0   16   26    0.000920    0.001010
   -4   -4    0   17   26   -0.000672   -0.000034
   -4   -4    0   18   26    0.000206    0.000559
   -4   -4    0   19   26    0.000674    0.000014
   -4   -4    0   20   26   -0.000457    0.000923
   -4   -4    0   21   26    0.000400    0.000377
   -4   -4    0   22   26    0.000106    0.001011
   -4   -4    0   23   26   -0.000340    0.000131
   -4   -4    0   24   26    0.000215    0.001408
   -4   -4    0   25   26   -0.000185    0.000160
   -4   -4    0   26   26   -0.000093   -0.000000
   -4   -4    0   27   26   -0.000185    0.000167
   -4   -4    0   28   26    0.000254    0.001162
   -4   -4    0   29   26   -0.000536   -0.000182
   -4   -4    0   30   26   -0.000168    0.000016
   -4   -4    0   31   26   -0.000731   -0.000013
   -4   -4    0   32   26    0.000100    0.000743
   -4   -4    0    1   27   -0.000630    0.000052
   -4   -4    0    2   27    0.000587   -0.000058
   -4   -4    0    3   27    0.000039   -0.000072
   -4   -4    0    4   27   -0.000399    0.000116
   -4   -4    0    5   27    0.000204   -0.000009
   -4   -4    0    6   27    0.000379    0.000008
   -4   -4    0    7   27   -0.000565    0.000022
   -4   -4    0    8   27    0.000634   -0.000022
   -4   -4    0    9   27    0.000520    0.000079
   -4   -4    0   10   27   -0.000791    0.000204
   -4   -4    0   11   27   -0.000111   -0.000057
   -4   -4    0   12   27    0.000702   -0.000201
   -4   -4    0   13   27    0.001385    0.000133
   -4   -4    0   14   27    0.000130   -0.000257
   -4   -4    0   15   27    0.001824    0.000043
   -4   -4    0   16   27    0.000873    0.000266
   -4   -4    0   17   27   -0.000709   -0.000108
   -4   -4    0   18   27    0.000009    0.000218
   -4   -4    0   19   27   -0.000136    0.000013
   -4   -4    0   20   27    0.000150    0.000192
   -4   -4    0   21   27    0.001084   -0.000010
   -4   -4    0   22   27    0.000414    0.000006
   -4   -4    0   23   27    0.000071   -0.000206
   -4   -4    0   24   27   -0.001005    0.000450
   -4   -4    0   25   27    0.001214    0.000037
   -4   -4    0   26   27   -0.000185   -0.000167
   -4   -4    0   27   27   -0.002017   -0.000000
   -4   -4    0   28   27   -0.000206    0.000242
   -4   -4    0   29   27   -0.000181   -0.000142
   -4   -4    0   30   27   -0.000730    0.000053
   -4   -4    0   31   27   -0.000307    0.000008
   -4   -4    0   32   27    0.000002    0.000249
   -4   -4    0    1   28   -0.000976   -0.000511
   -4   -4    0    2   28   -0.000024    0.001217
   -4   -4    0    3   28   -0.001588    0.000040
   -4   -4    0    4   28    0.000888    0.000287
   -4   -4    0    5   28   -0.000636   -0.000061
   -4   -4    0    6   28    0.000177    0.000140
   -4   -4    0    7   28   -0.000639   -0.000034
   -4   -4    0    8   28    0.000935    0.000039
   -4   -4    0    9   28    0.000686    0.000257
   -4   -4    0   10   28    0.000092    0.000749
   -4   -4    0   11   28   -0.000237   -0.000036
   -4   -4    0   12   28    0.000453   -0.000123
   -4   -4    0   13   28   -0.000891   -0.000330
   -4   -4    0   14   28    0.000915    0.001001
   -4   -4    0   15   28    0.000903    0.000306
   -4   -4    0   16   28    0.001501   -0.000132
   -4   -4    0   17   28   -0.000350    0.000016
   -4   -4    0   18   28    0.000006   -0.000511
   -4   -4    0   19   28    0.000349   -0.000025
   -4   -4    0   20   28   -0.000233   -0.000339
   -4   -4    0   21   28    0.000979    0.000106
   -4   -4    0   22   28   -0.000244   -0.001036
   -4   -4    0   23   28   -0.001246   -0.000259
   -4   -4    0   24   28    0.000233   -0.000281
   -4   -4    0   25   28   -0.000200   -0.000245
   -4   -4    0   26   28    0.000254   -0.001162
   -4   -4    0   27   28   -0.000206   -0.000242
   -4   -4    0   28   28   -0.000364   -0.000000
   -4   -4    0   29   28   -0.000427    0.000182
   -4   -4    0   30   28    0.000168   -0.000796
   -4   -4    0   31   28    0.000012   -0.000252
   -4   -4    0   32   28    0.000297    0.000070
   -4   -4    0    1   29   -0.000561   -0.000022
   -4   -4    0    2   29   -0.000349   -0.000002
   -4   -4    0    3   29   -0.000182   -0.000010
   -4   -4    0    4   29   -0.000617    0.000065
   -4   -4    0    5   29   -0.000732   -0.000176
   -4   -4    0    6   29    0.000364   -0.000206
   -4   -4    0    7   29    0.001607    0.000061
   -4   -4    0    8   29   -0.001059   -0.000249
   -4   -4    0    9   29   -0.001867   -0.000042
   -4   -4    0   10   29   -0.000144    0.000252
   -4   -4    0   11   29    0.001412    0.000051
   -4   -4    0   12   29   -0.000871   -0.000245
   -4   -4    0   13   29   -0.000114   -0.000008
   -4   -4    0   14   29   -0.000230    0.000008
   -4   -4    0   15   29    0.000560   -0.000031
   -4   -4    0   16   29    0.000230   -0.000106
   -4   -4    0   17   29    0.000053    0.000388
   -4   -4    0   18   29    0.000342   -0.000392
   -4   -4    0   19   29    0.001455   -0.000054
   -4   -4    0   20   29   -0.001206   -0.000293
   -4   -4    0   21   29    0.000154    0.000016
   -4   -4    0   22   29   -0.000011   -0.000207
   -4   -4    0   23   29   -0.000716   -0.000084
   -4   -4    0   24   29   -0.000139   -0.000221
   -4   -4    0   25   29   -0.000047   -0.000005
   -4   -4    0   26   29   -0.000536    0.000182
   -4   -4    0   27   29   -0.000181    0.000142
   -4   -4    0   28   29   -0.000427   -0.000182
   -4   -4    0   29   29   -0.002035   -0.000000
   -4   -4    0   30   29    0.000191    0.000196
   -4   -4    0   31   29   -0.001225    0.000038
   -4   -4    0   32   29    0.000212   -0.000297
   -4   -4    0    1   30   -0.000356   -0.000012
   -4   -4    0    2   30    0.000693    0.000019
   -4   -4    0    3   30    0.000349   -0.000007
   -4   -4    0    4   30   -0.000287    0.000105
   -4   -4    0    5   30    0.000785    0.000116
   -4   -4    0    6   30    0.000495    0.000067
   -4   -4    0    7   30   -0.000222   -0.000018
   -4   -4    0    8   30    0.000494    0.000456
   -4   -4    0    9   30    0.000152   -0.000234
   -4   -4    0   10   30   -0.000328   -0.001112
   -4   -4    0   11   30    0.000136   -0.000243
   -4   -4    0   12   30    0.000943    0.000951
   -4   -4    0   13   30    0.000770    0.000258
   -4   -4    0   14   30   -0.000360   -0.000469
   -4   -4    0   15   30    0.000218   -0.000077
   -4   -4    0   16   30    0.000111    0.000267
   -4   -4    0   17   30   -0.000405   -0.000406
   -4   -4    0   18   30    0.000133    0.001085
   -4   -4    0   19   30   -0.000352    0.000161
   -4   -4    0   20   30    0.000264    0.001543
   -4   -4    0   21   30    0.000684    0.000015
   -4   -4    0   22   30    0.000222    0.000457
   -4   -4    0   23   30    0.000677   -0.000012
   -4   -4    0   24   30   -0.000471    0.000852
   -4   -4    0   25   30    0.000530    0.000189
   -4   -4    0   26   30   -0.000168   -0.000016
   -4   -4    0   27   30   -0.000730   -0.000053
   -4   -4    0   28   30    0.000168    0.000796
   -4   -4    0   29   30    0.000191   -0.000196
   -4   -4    0   30   30   -0.000153   -0.000000
   -4   -4    0   31   30   -0.000184    0.000197
   -4   -4    0   32   30    0.000245    0.001163
   -4   -4    0    1   31   -0.000183   -0.000022
   -4   -4    0    2   31    0.000363    0.000006
   -4   -4    0    3   31   -0.000561   -0.000019
   -4   -4    0    4   31    0.000606   -0.000041
   -4   -4    0    5   31    0.000645   -0.000085
   -4   -4    0    6   31    0.000567   -0.000051
   -4   -4    0    7   31    0.000051   -0.000045
   -4   -4    0    8   31   -0.000394    0.000128
   -4   -4    0    9   31   -0.001407   -0.000134
   -4   -4    0   10   31    0.000141   -0.000243
   -4   -4    0   11   31    0.001863    0.000044
   -4   -4    0   12   31    0.000860    0.000268
   -4   -4    0   13   31   -0.000530   -0.000076
   -4   -4    0   14   31   -0.000770    0.000206
   -4   -4    0   15   31   -0.000123   -0.000027
   -4   -4    0   16   31    0.000697   -0.000199
   -4   -4    0   17   31   -0.001093   -0.000020
   -4   -4    0   18   31    0.000406    0.000051
   -4   -4    0   19   31    0.000043   -0.000214
   -4   -4    0   20   31   -0.001011    0.000501
   -4   -4    0   21   31    0.000712    0.000126
   -4   -4    0   22   31   -0.000006    0.000215
   -4   -4    0   23   31   -0.000155   -0.000015
   -4   -4    0   24   31    0.000140    0.000225
   -4   -4    0   25   31    0.000182    0.000134
   -4   -4    0   26   31   -0.000731    0.000013
   -4   -4    0   27   31   -0.000307   -0.000008
   -4   -4    0   28   31    0.000012    0.000252
   -4   -4    0   29   31   -0.001225   -0.000038
   -4   -4    0   30   31   -0.000184   -0.000197
   -4   -4    0   31   31   -0.002030   -0.000000
   -4   -4    0   32   31   -0.000220    0.000290
   -4   -4    0    1   32    0.000605    0.000038
   -4   -4    0    2   32    0.000284    0.000158
   -4   -4    0    3   32   -0.000616   -0.000025
   -4   -4    0    4   32    0.001155   -0.000040
   -4   -4    0    5   32    0.000957    0.000481
   -4   -4    0    6   32   -0.000015    0.001158
   -4   -4    0    7   32   -0.001584    0.000001
   -4   -4    0    8   32    0.000845    0.000108
   -4   -4    0    9   32    0.000885    0.000337
   -4   -4    0   10   32    0.000910    0.001116
   -4   -4    0   11   32    0.000891    0.000314
   -4   -4    0   12   32    0.001547   -0.000152
   -4   -4    0   13   32   -0.000677   -0.000266
   -4   -4    0   14   32    0.000025    0.000805
   -4   -4    0   15   32   -0.000239   -0.000009
   -4   -4    0   16   32    0.000556   -0.000386
   -4   -4    0   17   32   -0.000964   -0.000081
   -4   -4    0   18   32   -0.000204   -0.001166
   -4   -4    0   19   32   -0.001242   -0.000311
   -4   -4    0   20   32    0.000254   -0.000494
   -4   -4    0   21   32    0.000350    0.000014
   -4   -4    0   22   32    0.000037   -0.000492
   -4   -4    0   23   32    0.000339   -0.000001
   -4   -4    0   24   32   -0.000102   -0.000193
   -4   -4    0   25   32    0.000442   -0.000131
   -4   -4    0   26   32    0.000100   -0.000743
   -4   -4    0   27   32    0.000002   -0.000249
   -4   -4    0   28   32    0.000297   -0.000070
   -4   -4    0   29   32    0.000212    0.000297
   -4   -4    0   30   32    0.000245   -0.001163
   -4   -4    0   31   32   -0.000220   -0.000290
   -4   -4    0   32   32   -0.000219   -0.000000
   -4   -3    0    1    1    0.001647   -0.000094
   -4   -3    0    2    1   -0.000070   -0.000243
   -4   -3    0    3    1    0.001135   -0.000265
   -4   -3    0    4    1    0.000429    0.000191
   -4   -3    0    5    1    0.002182    0.000000
   -4   -3    0    6    1   -0.000178   -0.000062
   -4   -3    0    7    1   -0.000446   -0.000698
   -4   -3    0    8    1   -0.000538   -0.000015
   -4   -3    0    9    1   -0.002374    0.000368
   -4   -3    0   10    1    0.000049    0.000462
   -4   -3    0   11    1    0.003257   -0.000345
   -4   -3    0   12    1    0.001309   -0.000042
   -4   -3    0   13    1   -0.000039   -0.000183
   -4   -3    0   14    1   -0.000983   -0.000100
   -4   -3    0   15    1   -0.001524    0.000022
   -4   -3    0   16    1   -0.000749    0.000157
   -4   -3    0   17    1   -0.001201   -0.000124
   -4   -3    0   18    1    0.000796   -0.000207
   -4   -3    0   19    1   -0.000943   -0.000167
   -4   -3    0   20    1   -0.000283    0.000071
   -4   -3    0   21    1   -0.001876   -0.000035
   -4   -3    0   22    1   -0.001129   -0.000124
   -4   -3    0   23    1    0.000761    0.000036
   -4   -3    0   24    1    0.000112   -0.000200
   -4   -3    0   25    1    0.000932    0.000119
   -4   -3    0   26    1    0.000423    0.000253
   -4   -3    0   27    1    0.000321   -0.000193
   -4   -3    0   28    1    0.001050    0.000092
   -4   -3    0   29    1   -0.000384    0.000005
   -4   -3    0   30    1    0.000205   -0.000097
   -4   -3    0   31    1   -0.000624    0.000021
   -4   -3    0   32    1   -0.000061   -0.000004
   -4   -3    0    1    2    0.000089   -0.000193
   -4   -3    0    2    2   -0.000387   -0.000118
   -4   -3    0    3    2   -0.000085    0.000189
   -4   -3    0    4    2    0.000368   -0.001012
   -4   -3    0    5    2    0.000169   -0.000094
   -4   -3    0    6    2   -0.000348   -0.000114
   -4   -3    0    7    2   -0.001029   -0.000013
   -4   -3    0    8    2    0.001419   -0.000030
   -4   -3    0    9    2    0.000747    0.000331
   -4   -3    0   10    2    0.000885    0.000819
   -4   -3    0   11    2    0.000767    0.000306
   -4   -3    0   12    2    0.001585   -0.000300
   -4   -3    0   13    2    0.000119   -0.000213
   -4   -3    0   14    2    0.000445    0.001299
   -4   -3    0   15    2    0.000994    0.000418
   -4   -3    0   16    2    0.001126   -0.001120
   -4   -3    0   17    2    0.000362    0.000044
   -4   -3    0   18    2   -0.000207   -0.000421
   -4   -3    0   19    2    0.000024   -0.000005
   -4   -3    0   20    2    0.000375   -0.000933
   -4   -3    0   21    2    0.001130   -0.000474
   -4   -3    0   22    2    0.002288   -0.001346
   -4   -3    0   23    2    0.001107   -0.000516
   -4   -3    0   24    2   -0.000816   -0.001464
   -4   -3    0   25    2    0.000629   -0.000569
   -4   -3    0   26    2   -0.000525    0.000114
   -4   -3    0   27    2   -0.001188    0.000026
   -4   -3    0   28    2   -0.000307   -0.001669
   -4   -3    0   29    2    0.000198    0.000078
   -4   -3    0   30    2   -0.001281    0.000006
   -4   -3    0   31    2   -0.000216   -0.000077
   -4   -3    0   32    2    0.000295   -0.000723
   -4   -3    0    1    3    0.001152   -0.000190
   -4   -3    0    2    3    0.000073    0.000235
   -4   -3    0    3    3    0.001648   -0.000092
   -4   -3    0    4    3   -0.000427   -0.000207
   -4   -3    0    5    3    0.000431   -0.000714
   -4   -3    0    6    3   -0.001032   -0.000027
   -4   -3    0    7    3    0.001791   -0.000012
   -4   -3    0    8    3   -0.002194    0.000658
   -4   -3    0    9    3   -0.003272    0.000150
   -4   -3    0   10    3   -0.000034   -0.000469
   -4   -3    0   11    3    0.002379   -0.000362
   -4   -3    0   12    3   -0.001299    0.000001
   -4   -3    0   13    3    0.000118    0.000033
   -4   -3    0   14    3   -0.000121    0.000132
   -4   -3    0   15    3   -0.000037    0.000321
   -4   -3    0   16    3   -0.000909    0.000263
   -4   -3    0   17    3    0.000689    0.000259
   -4   -3    0   18    3    0.000636   -0.000387
   -4   -3    0   19    3    0.000820    0.000017
   -4   -3    0   20    3   -0.000839   -0.000022
   -4   -3    0   21    3   -0.000757   -0.000088
   -4   -3    0   22    3    0.001117    0.000168
   -4   -3    0   23    3    0.001876    0.000037
   -4   -3    0   24    3   -0.000103    0.000188
   -4   -3    0   25    3    0.000337   -0.000483
   -4   -3    0   26    3   -0.000338    0.000799
   -4   -3    0   27    3    0.000884    0.000308
   -4   -3    0   28    3    0.000108   -0.000610
   -4   -3    0   29    3   -0.000627   -0.000018
   -4   -3    0   30    3   -0.000199    0.000084
   -4   -3    0   31    3   -0.000385    0.000006
   -4   -3    0   32    3    0.000068    0.000003
   -4   -3    0    1    4    0.000347   -0.000299
   -4   -3    0    2    4   -0.000366    0.000184
   -4   -3    0    3    4   -0.000330    0.000316
   -4   -3    0    4    4    0.001050   -0.000559
   -4   -3    0    5    4    0.000528   -0.000121
   -4   -3    0    6    4    0.001451   -0.000360
   -4   -3    0    7    4   -0.002163   -0.000726
   -4   -3    0    8    4    0.003312   -0.000208
   -4   -3    0    9    4    0.000552    0.000410
   -4   -3    0   10    4   -0.000394    0.001989
   -4   -3    0   11    4    0.000557    0.000392
   -4   -3    0   12    4    0.003275   -0.000375
   -4   -3    0   13    4   -0.000946   -0.000637
   -4   -3    0   14    4   -0.001149    0.002233
   -4   -3    0   15    4   -0.000702    0.000446
   -4   -3    0   16    4    0.000624   -0.001074
   -4   -3    0   17    4   -0.000209    0.000087
   -4   -3    0   18    4   -0.000489   -0.000702
   -4   -3    0   19    4   -0.001501   -0.000163
   -4   -3    0   20    4    0.001591   -0.000439
   -4   -3    0   21    4   -0.000143   -0.000547
   -4   -3    0   22    4   -0.000805   -0.001519
   -4   -3    0   23    4   -0.000144   -0.000533
   -4   -3    0   24    4    0.000341   -0.001075
   -4   -3    0   25    4    0.001903   -0.000574
   -4   -3    0   26    4    0.000456   -0.001199
   -4   -3    0   27    4   -0.001363   -0.000348
   -4   -3    0   28    4    0.001166   -0.001085
   -4   -3    0   29    4    0.000057    0.000011
   -4   -3    0   30    4   -0.000275   -0.000725
   -4   -3    0   31    4   -0.000047   -0.000005
   -4   -3    0   32    4    0.002183    0.000003
   -4   -3    0    1    5   -0.000054   -0.000025
   -4   -3    0    2    5    0.000540   -0.000166
   -4   -3    0    3    5    0.000173   -0.000156
   -4   -3    0    4    5   -0.000443   -0.000159
   -4   -3    0    5    5    0.001662    0.000089
   -4   -3    0    6    5   -0.000117   -0.000181
   -4   -3    0    7    5   -0.001169   -0.000207
   -4   -3    0    8    5   -0.000332   -0.000278
   -4   -3    0    9    5   -0.000378    0.000228
   -4   -3    0   10    5    0.000626    0.000475
   -4   -3    0   11    5    0.001783   -0.000086
   -4   -3    0   12    5    0.000861   -0.000436
   -4   -3    0   13    5    0.000135    0.000007
   -4   -3    0   14    5    0.000017    0.000201
   -4   -3    0   15    5    0.000707    0.000078
   -4   -3    0   16    5   -0.000156   -0.000215
   -4   -3    0   17    5   -0.001848   -0.000041
   -4   -3    0   18    5    0.000129   -0.000254
   -4   -3    0   19    5   -0.001403   -0.000049
   -4   -3    0   20    5   -0.000887   -0.000233
   -4   -3    0   21    5    0.000825   -0.000100
   -4   -3    0   22    5    0.000003   -0.000195
   -4   -3    0   23    5    0.000925   -0.000127
   -4   -3    0   24    5   -0.001514   -0.000100
   -4   -3    0   25    5    0.001459    0.000004
   -4   -3    0   26    5   -0.000235    0.000042
   -4   -3    0   27    5   -0.001386    0.000043
   -4   -3    0   28    5   -0.000544   -0.000190
   -4   -3    0   29    5   -0.000725   -0.000149
   -4   -3    0   30    5   -0.000362    0.000204
   -4   -3    0   31    5   -0.001602   -0.000040
   -4   -3    0   32    5   -0.001067   -0.000225
   -4   -3    0    1    6   -0.000535   -0.000212
   -4   -3    0    2    6   -0.000159    0.000029
   -4   -3    0    3    6   -0.000717   -0.000034
   -4   -3    0    4    6   -0.000125   -0.000755
   -4   -3    0    5    6    0.000093   -0.000286
   -4   -3    0    6    6   -0.000347   -0.000010
   -4   -3    0    7    6    0.000085   -0.000289
   -4   -3    0    8    6   -0.000365   -0.000371
   -4   -3    0    9    6   -0.000219    0.000302
   -4   -3    0   10    6    0.000105    0.000953
   -4   -3    0   11    6    0.000611    0.000067
   -4   -3    0   12    6   -0.000605   -0.001243
   -4   -3    0   13    6   -0.000663   -0.000041
   -4   -3    0   14    6    0.000190    0.000539
   -4   -3    0   15    6    0.000666    0.000019
   -4   -3    0   16    6    0.000444   -0.000965
   -4   -3    0   17    6   -0.000132    0.000236
   -4   -3    0   18    6   -0.000325   -0.001102
   -4   -3    0   19    6    0.000123   -0.000246
   -4   -3    0   20    6   -0.000919   -0.001002
   -4   -3    0   21    6    0.000612    0.000551
   -4   -3    0   22    6   -0.000222   -0.000631
   -4   -3    0   23    6   -0.000784   -0.000142
   -4   -3    0   24    6   -0.000561   -0.000580
   -4   -3    0   25    6   -0.000222   -0.000043
   -4   -3    0   26    6   -0.000645   -0.000006
   -4   -3    0   27    6   -0.000234   -0.000032
   -4   -3    0   28    6   -0.000920   -0.000699
   -4   -3    0   29    6   -0.000755   -0.000111
   -4   -3    0   30    6    0.000469    0.000110
   -4   -3    0   31    6   -0.000219   -0.000019
   -4   -3    0   32    6   -0.000406   -0.000452
   -4   -3    0    1    7   -0.000176   -0.000122
   -4   -3    0    2    7   -0.000735    0.000034
   -4   -3    0    3    7   -0.000300    0.000021
   -4   -3    0    4    7   -0.000016   -0.000240
   -4   -3    0    5    7   -0.001148   -0.000277
   -4   -3    0    6    7   -0.000113   -0.000182
   -4   -3    0    7    7    0.001660    0.000093
   -4   -3    0    8    7   -0.000325   -0.000287
   -4   -3    0    9    7   -0.000915   -0.000088
   -4   -3    0   10    7   -0.000206    0.000167
   -4   -3    0   11    7   -0.000386    0.000049
   -4   -3    0   12    7   -0.001348   -0.000293
   -4   -3    0   13    7   -0.000703   -0.000118
   -4   -3    0   14    7    0.000008    0.000207
   -4   -3    0   15    7   -0.000142   -0.000005
   -4   -3    0   16    7   -0.000149   -0.000221
   -4   -3    0   17    7    0.001398    0.000134
   -4   -3    0   18    7    0.000136   -0.000243
   -4   -3    0   19    7    0.001844    0.000043
   -4   -3    0   20    7   -0.000875   -0.000263
   -4   -3    0   21    7   -0.000719    0.000360
   -4   -3    0   22    7   -0.000371   -0.000205
   -4   -3    0   23    7   -0.001183    0.000039
   -4   -3    0   24    7    0.000215   -0.000282
   -4   -3    0   25    7   -0.001378   -0.000041
   -4   -3    0   26    7   -0.000233    0.000041
   -4   -3    0   27    7    0.001457    0.000010
   -4   -3    0   28    7   -0.000532   -0.000204
   -4   -3    0   29    7   -0.000643    0.000068
   -4   -3    0   30    7    0.000583   -0.000062
   -4   -3    0   31    7    0.000056   -0.000071
   -4   -3    0   32    7    0.000389   -0.000106
   -4   -3    0    1    8    0.000434   -0.000151
   -4   -3    0    2    8   -0.000163    0.000787
   -4   -3    0    3    8   -0.000003    0.000261
   -4   -3    0    4    8    0.000305    0.000088
   -4   -3    0    5    8   -0.000488    0.000135
   -4   -3    0    6    8    0.000328    0.000889
   -4   -3    0    7    8   -0.000481    0.000151
   -4   -3    0    8    8    0.000901    0.000408
   -4   -3    0    9    8    0.001371    0.000254
   -4   -3    0   10    8    0.000644    0.000803
   -4   -3    0   11    8   -0.000844    0.000230
   -4   -3    0   12    8    0.000696    0.000190
   -4   -3    0   13    8    0.000355   -0.000012
   -4   -3    0   14    8   -0.000011    0.000537
   -4   -3    0   15    8   -0.000348    0.000025
   -4   -3    0   16    8   -0.000243   -0.000282
   -4   -3    0   17    8    0.000898    0.000339
   -4   -3    0   18    8   -0.000910   -0.001014
   -4   -3    0   19    8   -0.000905   -0.000310
   -4   -3    0   20    8    0.001484   -0.000132
   -4   -3    0   21    8   -0.000837    0.000271
   -4   -3    0   22    8    0.000430   -0.000043
   -4   -3    0   23    8    0.000312    0.000214
   -4   -3    0   24    8    0.001517   -0.000122
   -4   -3    0   25    8    0.000545   -0.000199
   -4   -3    0   26    8    0.000933   -0.000689
   -4   -3    0   27    8    0.000544   -0.000219
   -4   -3    0   28    8    0.001289    0.000000
   -4   -3    0   29    8    0.000989    0.000509
   -4   -3    0   30    8    0.000023   -0.001215
   -4   -3    0   31    8    0.001572   -0.000023
   -4   -3    0   32    8    0.000889    0.000279
   -4   -3    0    1    9    0.000153    0.000004
   -4   -3    0    2    9    0.000686   -0.000004
   -4   -3    0    3    9    0.000716   -0.000115
   -4   -3    0    4    9   -0.000341    0.000007
   -4   -3    0    5    9   -0.000029    0.000191
   -4   -3    0    6    9   -0.000094   -0.000156
   -4   -3    0    7    9   -0.000148    0.000052
   -4   -3    0    8    9    0.000935   -0.000531
   -4   -3    0    9    9    0.001638   -0.000027
   -4   -3    0   10    9    0.000079    0.000343
   -4   -3    0   11    9   -0.001137    0.000165
   -4   -3    0   12    9    0.000490   -0.000125
   -4   -3    0   13    9    0.001342   -0.000001
   -4   -3    0   14    9    0.000195    0.000107
   -4   -3    0   15    9   -0.000365    0.000247
   -4   -3    0   16    9   -0.000813    0.000177
   -4   -3    0   17    9   -0.000058   -0.000109
   -4   -3    0   18    9   -0.000221   -0.000017
   -4   -3    0   19    9   -0.001586    0.000165
   -4   -3    0   20    9    0.001592   -0.000347
   -4   -3    0   21    9   -0.000375   -0.000005
   -4   -3    0   22    9   -0.000200    0.000298
   -4   -3    0   23    9    0.000614   -0.000017
   -4   -3    0   24    9   -0.000064    0.000284
   -4   -3    0   25    9    0.000820    0.000091
   -4   -3    0   26    9    0.000621   -0.000535
   -4   -3    0   27    9   -0.000709   -0.000367
   -4   -3    0   28    9    0.000828    0.000262
   -4   -3    0   29    9    0.001309    0.000027
   -4   -3    0   30    9   -0.000232    0.000079
   -4   -3    0   31    9    0.001244    0.000022
   -4   -3    0   32    9    0.000079   -0.000093
   -4   -3    0    1   10   -0.000004    0.000230
   -4   -3    0    2   10    0.000240   -0.000476
   -4   -3    0    3   10    0.000004   -0.000224
   -4   -3    0    4   10   -0.000034   -0.000467
   -4   -3    0    5   10    0.000968   -0.000046
   -4   -3    0    6   10    0.000440   -0.001108
   -4   -3    0    7   10   -0.000107   -0.000090
   -4   -3    0    8   10   -0.001125   -0.001930
   -4   -3    0    9   10   -0.000112   -0.000063
   -4   -3    0   10   10   -0.000289    0.000114
   -4   -3    0   11   10   -0.000111   -0.000058
   -4   -3    0   12   10   -0.000382   -0.001285
   -4   -3    0   13   10   -0.000200    0.000135
   -4   -3    0   14   10    0.000002   -0.000087
   -4   -3    0   15   10   -0.000654    0.000017
   -4   -3    0   16   10   -0.000668   -0.000345
   -4   -3    0   17   10   -0.000583   -0.000190
   -4   -3    0   18   10    0.000371   -0.000220
   -4   -3    0   19   10   -0.000358    0.000071
   -4   -3    0   20   10   -0.000016   -0.000931
   -4   -3    0   21   10   -0.000207   -0.000317
   -4   -3    0   22   10   -0.001370   -0.000007
   -4   -3    0   23   10   -0.000208   -0.000304
   -4   -3    0   24   10   -0.000313    0.000043
   -4   -3    0   25   10    0.000021    0.000179
   -4   -3    0   26   10   -0.000207    0.000635
   -4   -3    0   27   10   -0.000365    0.000204
   -4   -3    0   28   10   -0.000415   -0.000039
   -4   -3    0   29   10    0.000238   -0.000341
   -4   -3    0   30   10   -0.000179    0.001234
   -4   -3    0   31   10   -0.000225    0.000343
   -4   -3    0   32   10   -0.000534   -0.001290
   -4   -3    0    1   11   -0.000717    0.000068
   -4   -3    0    2   11    0.000694    0.000011
   -4   -3    0    3   11   -0.000154   -0.000004
   -4   -3    0    4   11   -0.000346    0.000001
   -4   -3    0    5   11    0.001531    0.000038
   -4   -3    0    6   11    0.000964   -0.000383
   -4   -3    0    7   11   -0.000033   -0.000329
   -4   -3    0    8   11   -0.000678   -0.000389
   -4   -3    0    9   11   -0.001142    0.000103
   -4   -3    0   10   11    0.000062    0.000355
   -4   -3    0   11   11    0.001635   -0.000030
   -4   -3    0   12   11    0.000490   -0.000111
   -4   -3    0   13   11    0.000374    0.000275
   -4   -3    0   14   11   -0.000664   -0.000065
   -4   -3    0   15   11    0.001073    0.000002
   -4   -3    0   16   11    0.000386   -0.000065
   -4   -3    0   17   11   -0.000651   -0.000049
   -4   -3    0   18   11    0.000774   -0.000263
   -4   -3    0   19   11    0.000727   -0.000098
   -4   -3    0   20   11   -0.000957   -0.000059
   -4   -3    0   21   11    0.000611    0.000020
   -4   -3    0   22   11   -0.000224    0.000298
   -4   -3    0   23   11   -0.000375   -0.000006
   -4   -3    0   24   11   -0.000062    0.000278
   -4   -3    0   25   11    0.000939    0.000118
   -4   -3    0   26   11   -0.000790    0.000150
   -4   -3    0   27   11   -0.001190   -0.000023
   -4   -3    0   28   11   -0.000303    0.000235
   -4   -3    0   29   11   -0.001240   -0.000095
   -4   -3    0   30   11   -0.000232    0.000076
   -4   -3    0   31   11   -0.001305   -0.000025
   -4   -3    0   32   11    0.000078   -0.000088
   -4   -3    0    1   12    0.000149   -0.000189
   -4   -3    0    2   12    0.000488    0.000807
   -4   -3    0    3   12   -0.000132    0.000196
   -4   -3    0    4   12   -0.000096    0.000250
   -4   -3    0    5   12    0.000713    0.000076
   -4   -3    0    6   12    0.001141    0.000868
   -4   -3    0    7   12   -0.000920   -0.000311
   -4   -3    0    8   12    0.000536    0.000698
   -4   -3    0    9   12    0.000342    0.000206
   -4   -3    0   10   12    0.000308    0.001004
   -4   -3    0   11   12    0.000355    0.000203
   -4   -3    0   12   12    0.000995    0.000502
   -4   -3    0   13   12    0.000815    0.000097
   -4   -3    0   14   12   -0.000684    0.000608
   -4   -3    0   15   12    0.000380    0.000087
   -4   -3    0   16   12   -0.000193   -0.000151
   -4   -3    0   17   12   -0.000378    0.000324
   -4   -3    0   18   12   -0.000376   -0.001160
   -4   -3    0   19   12   -0.001094   -0.000357
   -4   -3    0   20   12    0.000901    0.000294
   -4   -3    0   21   12    0.000067    0.000269
   -4   -3    0   22   12    0.000334    0.000039
   -4   -3    0   23   12    0.000083    0.000270
   -4   -3    0   24   12    0.002108   -0.000004
   -4   -3    0   25   12    0.001530   -0.000145
   -4   -3    0   26   12    0.000560   -0.000583
   -4   -3    0   27   12   -0.000223   -0.000269
   -4   -3    0   28   12    0.001515    0.000116
   -4   -3    0   29   12   -0.000059    0.000373
   -4   -3    0   30   12   -0.000526   -0.001270
   -4   -3    0   31   12    0.000045   -0.000377
   -4   -3    0   32   12    0.001009    0.000696
   -4   -3    0    1   13   -0.000388   -0.000193
   -4   -3    0    2   13    0.000209    0.000307
   -4   -3    0    3   13    0.000932   -0.000057
   -4   -3    0    4   13   -0.001360    0.000278
   -4   -3    0    5   13   -0.002407   -0.000362
   -4   -3    0    6   13   -0.000763    0.000329
   -4   -3    0    7   13    0.003276    0.000153
   -4   -3    0    8   13   -0.000541    0.000384
   -4   -3    0    9   13   -0.001010   -0.000029
   -4   -3    0   10   13   -0.000657   -0.000182
   -4   -3    0   11   13   -0.000211   -0.000022
   -4   -3    0   12   13   -0.002671    0.000466
   -4   -3    0   13   13    0.001644    0.000050
   -4   -3    0   14   13    0.000104   -0.000083
   -4   -3    0   15   13    0.001174    0.000115
   -4   -3    0   16   13   -0.000366    0.000220
   -4   -3    0   17   13    0.001455   -0.000004
   -4   -3    0   18   13    0.000238    0.000061
   -4   -3    0   19   13    0.001381   -0.000040
   -4   -3    0   20   13   -0.000523    0.000065
   -4   -3    0   21   13   -0.000881    0.000429
   -4   -3    0   22   13    0.001189    0.000119
   -4   -3    0   23   13    0.000317    0.000035
   -4   -3    0   24   13    0.001348    0.000080
   -4   -3    0   25   13   -0.001514    0.000074
   -4   -3    0   26   13    0.000242   -0.000226
   -4   -3    0   27   13    0.002074   -0.000218
   -4   -3    0   28   13    0.000120    0.000210
   -4   -3    0   29   13   -0.001197    0.000106
   -4   -3    0   30   13    0.000369   -0.000045
   -4   -3    0   31   13    0.000694   -0.000258
   -4   -3    0   32   13    0.000226    0.000094
   -4   -3    0    1   14   -0.000611    0.000490
   -4   -3    0    2   14    0.000134   -0.000886
   -4   -3    0    3   14   -0.000201   -0.000164
   -4   -3    0    4   14    0.000572   -0.000787
   -4   -3    0    5   14   -0.000054    0.000482
   -4   -3    0    6   14    0.000855   -0.000706
   -4   -3    0    7   14   -0.000042    0.000479
   -4   -3    0    8   14   -0.000394   -0.001690
   -4   -3    0    9   14    0.000661   -0.000169
   -4   -3    0   10   14   -0.000605   -0.000023
   -4   -3    0   11   14   -0.001557    0.000106
   -4   -3    0   12   14   -0.000130   -0.000887
   -4   -3    0   13   14   -0.000062    0.000408
   -4   -3    0   14   14   -0.000250   -0.000250
   -4   -3    0   15   14    0.000053   -0.000409
   -4   -3    0   16   14    0.000264   -0.000838
   -4   -3    0   17   14    0.000252   -0.000062
   -4   -3    0   18   14   -0.000791    0.000007
   -4   -3    0   19   14   -0.000247    0.000064
   -4   -3    0   20   14    0.000825   -0.000235
   -4   -3    0   21   14   -0.000295   -0.000827
   -4   -3    0   22   14   -0.000619    0.000256
   -4   -3    0   23   14   -0.000393    0.000406
   -4   -3    0   24   14    0.000413    0.000113
   -4   -3    0   25   14   -0.000254    0.000319
   -4   -3    0   26   14   -0.000617    0.000967
   -4   -3    0   27   14   -0.000239    0.000321
   -4   -3    0   28   14    0.000770   -0.000210
   -4   -3    0   29   14    0.000801    0.000224
   -4   -3    0   30   14   -0.000205    0.000410
   -4   -3    0   31   14    0.000639    0.000371
   -4   -3    0   32   14    0.000478   -0.000701
   -4   -3    0    1   15   -0.001776   -0.000051
   -4   -3    0    2   15    0.000599   -0.000080
   -4   -3    0    3   15   -0.000383   -0.000039
   -4   -3    0    4   15   -0.000804   -0.000256
   -4   -3    0    5   15   -0.003267   -0.000351
   -4   -3    0    6   15    0.000769   -0.000304
   -4   -3    0    7   15    0.002405    0.000356
   -4   -3    0    8   15    0.000553   -0.000377
   -4   -3    0    9   15    0.000197   -0.000084
   -4   -3    0   10   15   -0.001552   -0.000111
   -4   -3    0   11   15   -0.002135    0.000026
   -4   -3    0   12   15   -0.001863   -0.000235
   -4   -3    0   13   15    0.001172    0.000183
   -4   -3    0   14   15   -0.000104    0.000081
   -4   -3    0   15   15    0.001643    0.000048
   -4   -3    0   16   15    0.000371   -0.000209
   -4   -3    0   17   15    0.001388    0.000041
   -4   -3    0   18   15   -0.000248   -0.000072
   -4   -3    0   19   15    0.001454   -0.000010
   -4   -3    0   20   15    0.000531   -0.000046
   -4   -3    0   21   15    0.000320    0.000537
   -4   -3    0   22   15    0.000630    0.000231
   -4   -3    0   23   15   -0.000921   -0.000052
   -4   -3    0   24   15    0.001918   -0.000089
   -4   -3    0   25   15   -0.002083    0.000098
   -4   -3    0   26   15   -0.000243    0.000225
   -4   -3    0   27   15    0.001512   -0.000076
   -4   -3    0   28   15   -0.000118   -0.000210
   -4   -3    0   29   15   -0.000947    0.000166
   -4   -3    0   30   15    0.000032    0.000032
   -4   -3    0   31   15    0.000827   -0.000007
   -4   -3    0   32   15    0.001506   -0.000121
   -4   -3    0    1   16   -0.000859   -0.000461
   -4   -3    0    2   16   -0.000681    0.001221
   -4   -3    0    3   16   -0.001336    0.000316
   -4   -3    0    4   16    0.000696   -0.000147
   -4   -3    0    5   16   -0.001308   -0.000101
   -4   -3    0    6   16    0.001528    0.000100
   -4   -3    0    7   16   -0.001310   -0.000058
   -4   -3    0    8   16    0.003189    0.000215
   -4   -3    0    9   16    0.002687    0.000480
   -4   -3    0   10   16   -0.000058    0.000983
   -4   -3    0   11   16   -0.001842    0.000212
   -4   -3    0   12   16    0.001715    0.000052
   -4   -3    0   13   16   -0.000464   -0.000184
   -4   -3    0   14   16   -0.000364    0.001402
   -4   -3    0   15   16    0.000471    0.000169
   -4   -3    0   16   16    0.000951   -0.000679
   -4   -3    0   17   16    0.000523    0.000074
   -4   -3    0   18   16   -0.000813   -0.000225
   -4   -3    0   19   16   -0.000520   -0.000061
   -4   -3    0   20   16    0.001342   -0.000000
   -4   -3    0   21   16    0.000053    0.000433
   -4   -3    0   22   16   -0.000280   -0.001034
   -4   -3    0   23   16   -0.001093   -0.000389
   -4   -3    0   24   16    0.001153   -0.000485
   -4   -3    0   25   16   -0.000123   -0.000421
   -4   -3    0   26   16    0.000810   -0.001252
   -4   -3    0   27   16   -0.000138   -0.000421
   -4   -3    0   28   16    0.000277   -0.000417
   -4   -3    0   29   16    0.000275    0.000095
   -4   -3    0   30   16   -0.000380   -0.000930
   -4   -3    0   31   16    0.000829   -0.000020
   -4   -3    0   32   16    0.001573    0.000452
   -4   -3    0    1   17    0.000823    0.000074
   -4   -3    0    2   17   -0.000622    0.000524
   -4   -3    0    3   17    0.000711    0.000342
   -4   -3    0    4   17    0.000822    0.000243
   -4   -3    0    5   17   -0.001869    0.000032
   -4   -3    0    6   17   -0.001104   -0.000476
   -4   -3    0    7   17    0.000703   -0.000084
   -4   -3    0    8   17    0.000195   -0.000548
   -4   -3    0    9   17   -0.000870   -0.000390
   -4   -3    0   10   17    0.000269   -0.000818
   -4   -3    0   11   17   -0.000337    0.000481
   -4   -3    0   12   17   -0.000030    0.000371
   -4   -3    0   13   17   -0.000388   -0.000007
   -4   -3    0   14   17    0.000196   -0.000306
   -4   -3    0   15   17   -0.000615    0.000015
   -4   -3    0   16   17   -0.000049    0.000282
   -4   -3    0   17   17    0.001651   -0.000036
   -4   -3    0   18   17   -0.000091   -0.000403
   -4   -3    0   19   17    0.001158   -0.000182
   -4   -3    0   20   17    0.000494   -0.000179
   -4   -3    0   21   17   -0.001795   -0.000008
   -4   -3    0   22   17    0.001038    0.000396
   -4   -3    0   23   17   -0.000392    0.000780
   -4   -3    0   24   17    0.002124   -0.000277
   -4   -3    0   25   17   -0.002407    0.000252
   -4   -3    0   26   17    0.000061    0.000390
   -4   -3    0   27   17    0.003277   -0.000207
   -4   -3    0   28   17    0.001280    0.000189
   -4   -3    0   29   17   -0.000023    0.000191
   -4   -3    0   30   17    0.000120    0.000203
   -4   -3    0   31   17    0.000165   -0.000030
   -4   -3    0   32   17    0.000938   -0.000616
   -4   -3    0    1   18   -0.000025   -0.000174
   -4   -3    0    2   18   -0.000237    0.000626
   -4   -3    0    3   18   -0.000366    0.000215
   -4   -3    0    4   18    0.000443    0.000187
   -4   -3    0    5   18    0.001111   -0.000123
   -4   -3    0    6   18    0.002167    0.001353
   -4   -3    0    7   18    0.001098   -0.000157
   -4   -3    0    8   18   -0.000951    0.001503
   -4   -3    0    9   18   -0.001182    0.000089
   -4   -3    0   10   18   -0.000536   -0.000204
   -4   -3    0   11   18    0.000624   -0.000217
   -4   -3    0   12   18   -0.000345    0.001146
   -4   -3    0   13   18    0.000188    0.000326
   -4   -3    0   14   18   -0.001323   -0.000007
   -4   -3    0   15   18   -0.000205   -0.000312
   -4   -3    0   16   18    0.000270   -0.000024
   -4   -3    0   17   18    0.000114    0.000075
   -4   -3    0   18   18   -0.000249    0.000248
[...]
    4    4    0   18   20   -0.000199   -0.000532
    4    4    0   19   20    0.000181   -0.000167
    4    4    0   20   20   -0.000326    0.000000
    4    4    0   21   20    0.000810    0.000141
    4    4    0   22   20    0.000648   -0.000371
    4    4    0   23   20   -0.000398   -0.000038
    4    4    0   24   20   -0.000184    0.000200
    4    4    0   25   20    0.000160   -0.000185
    4    4    0   26   20   -0.000457   -0.000923
    4    4    0   27   20    0.000150   -0.000192
    4    4    0   28   20   -0.000233    0.000339
    4    4    0   29   20   -0.001206    0.000293
    4    4    0   30   20    0.000264   -0.001543
    4    4    0   31   20   -0.001011   -0.000501
    4    4    0   32   20    0.000254    0.000494
    4    4    0    1   21    0.001291    0.000026
    4    4    0    2   21   -0.000223    0.000087
    4    4    0    3   21    0.001268    0.000019
    4    4    0    4   21   -0.000087    0.000072
    4    4    0    5   21   -0.000119    0.000027
    4    4    0    6   21   -0.000774    0.000261
    4    4    0    7   21    0.000522   -0.000093
    4    4    0    8   21   -0.000687    0.000245
    4    4    0    9   21   -0.000554    0.000022
    4    4    0   10   21    0.000358    0.000045
    4    4    0   11   21    0.000184   -0.000021
    4    4    0   12   21   -0.000603    0.000028
    4    4    0   13   21   -0.000046   -0.000108
    4    4    0   14   21   -0.000221   -0.000005
    4    4    0   15   21   -0.001567    0.000164
    4    4    0   16   21   -0.001605    0.000339
    4    4    0   17   21    0.001336    0.000020
    4    4    0   18   21    0.000189    0.000095
    4    4    0   19   21   -0.000375    0.000279
    4    4    0   20   21    0.000810   -0.000141
    4    4    0   21   21   -0.002038    0.000000
    4    4    0   22   21   -0.000196    0.000000
    4    4    0   23   21    0.001225   -0.000038
    4    4    0   24   21    0.000193    0.000141
    4    4    0   25   21    0.000064   -0.000393
    4    4    0   26   21    0.000400   -0.000377
    4    4    0   27   21    0.001084    0.000010
    4    4    0   28   21    0.000979   -0.000106
    4    4    0   29   21    0.000154   -0.000016
    4    4    0   30   21    0.000684   -0.000015
    4    4    0   31   21    0.000712   -0.000126
    4    4    0   32   21    0.000350   -0.000014
    4    4    0    1   22    0.000229   -0.000334
    4    4    0    2   22   -0.000192    0.001235
    4    4    0    3   22   -0.000219    0.000347
    4    4    0    4   22    0.000548    0.001269
    4    4    0    5   22    0.000227    0.000005
    4    4    0    6   22   -0.000392    0.000496
    4    4    0    7   22   -0.000787   -0.000195
    4    4    0    8   22   -0.000106    0.000717
    4    4    0    9   22    0.000350   -0.000058
    4    4    0   10   22    0.000619   -0.000018
    4    4    0   11   22    0.000363   -0.000062
    4    4    0   12   22    0.000293    0.000589
    4    4    0   13   22   -0.000593   -0.000185
    4    4    0   14   22    0.000372   -0.000224
    4    4    0   15   22   -0.000344    0.000068
    4    4    0   16   22    0.000022    0.000921
    4    4    0   17   22   -0.000216    0.000146
    4    4    0   18   22    0.000014   -0.000101
    4    4    0   19   22   -0.000651    0.000032
    4    4    0   20   22    0.000648    0.000371
    4    4    0   21   22   -0.000196   -0.000000
    4    4    0   22   22   -0.000050    0.000000
    4    4    0   23   22   -0.000201    0.000008
    4    4    0   24   22   -0.000207    0.000592
    4    4    0   25   22   -0.000340   -0.000371
    4    4    0   26   22    0.000106   -0.001011
    4    4    0   27   22    0.000414   -0.000006
    4    4    0   28   22   -0.000244    0.001036
    4    4    0   29   22   -0.000011    0.000207
    4    4    0   30   22    0.000222   -0.000457
    4    4    0   31   22   -0.000006   -0.000215
    4    4    0   32   22    0.000037    0.000492
    4    4    0    1   23   -0.001264   -0.000099
    4    4    0    2   23   -0.000227    0.000074
    4    4    0    3   23   -0.001293   -0.000025
    4    4    0    4   23   -0.000095    0.000071
    4    4    0    5   23   -0.000560   -0.000051
    4    4    0    6   23    0.000222    0.000072
    4    4    0    7   23   -0.000119    0.000048
    4    4    0    8   23    0.000237   -0.000031
    4    4    0    9   23    0.000183   -0.000011
    4    4    0   10   23    0.000349    0.000063
    4    4    0   11   23   -0.000553    0.000019
    4    4    0   12   23   -0.000614    0.000017
    4    4    0   13   23   -0.000637   -0.000033
    4    4    0   14   23    0.000764   -0.000274
    4    4    0   15   23    0.000740   -0.000096
    4    4    0   16   23    0.000946    0.000056
    4    4    0   17   23    0.000373    0.000246
    4    4    0   18   23   -0.000659   -0.000053
    4    4    0   19   23    0.001080   -0.000020
    4    4    0   20   23   -0.000398    0.000038
    4    4    0   21   23    0.001225    0.000038
    4    4    0   22   23   -0.000201   -0.000008
    4    4    0   23   23   -0.002042    0.000000
    4    4    0   24   23    0.000188    0.000147
    4    4    0   25   23   -0.001448   -0.000038
    4    4    0   26   23   -0.000340   -0.000131
    4    4    0   27   23    0.000071    0.000206
    4    4    0   28   23   -0.001246    0.000259
    4    4    0   29   23   -0.000716    0.000084
    4    4    0   30   23    0.000677    0.000012
    4    4    0   31   23   -0.000155    0.000015
    4    4    0   32   23    0.000339    0.000001
    4    4    0    1   24    0.000068   -0.000394
    4    4    0    2   24    0.000541    0.001288
    4    4    0    3   24   -0.000061    0.000393
    4    4    0    4   24    0.000986    0.000695
    4    4    0    5   24    0.000210    0.000088
    4    4    0    6   24   -0.000137    0.000204
    4    4    0    7   24   -0.000705   -0.000218
    4    4    0    8   24    0.000460    0.000168
    4    4    0    9   24    0.000615    0.000055
    4    4    0   10   24   -0.000297    0.000641
    4    4    0   11   24    0.000604    0.000032
    4    4    0   12   24    0.001037    0.000041
    4    4    0   13   24    0.000385   -0.000318
    4    4    0   14   24    0.000374    0.001143
    4    4    0   15   24    0.001086    0.000359
    4    4    0   16   24    0.000903    0.000281
    4    4    0   17   24   -0.000810   -0.000135
    4    4    0   18   24    0.000683   -0.000579
    4    4    0   19   24   -0.000374   -0.000111
    4    4    0   20   24   -0.000184   -0.000200
    4    4    0   21   24    0.000193   -0.000141
    4    4    0   22   24   -0.000207   -0.000592
    4    4    0   23   24    0.000188   -0.000147
    4    4    0   24   24   -0.000265    0.000000
    4    4    0   25   24    0.001222   -0.000240
    4    4    0   26   24    0.000215   -0.001408
    4    4    0   27   24   -0.001005   -0.000450
    4    4    0   28   24    0.000233    0.000281
    4    4    0   29   24   -0.000139    0.000221
    4    4    0   30   24   -0.000471   -0.000852
    4    4    0   31   24    0.000140   -0.000225
    4    4    0   32   24   -0.000102    0.000193
    4    4    0    1   25   -0.000734   -0.000151
    4    4    0    2   25   -0.000352    0.000201
    4    4    0    3   25   -0.001582   -0.000042
    4    4    0    4   25    0.001053    0.000220
    4    4    0    5   25   -0.000566    0.000018
    4    4    0    6   25    0.000367   -0.000009
    4    4    0    7   25    0.000200   -0.000021
    4    4    0    8   25    0.000638   -0.000033
    4    4    0    9   25   -0.000123   -0.000040
    4    4    0   10   25    0.000210   -0.000001
    4    4    0   11   25   -0.000562    0.000082
    4    4    0   12   25   -0.000216    0.000089
    4    4    0   13   25   -0.001820   -0.000040
    4    4    0   14   25    0.000123   -0.000256
    4    4    0   15   25   -0.001390   -0.000050
    4    4    0   16   25    0.000877    0.000242
    4    4    0   17   25    0.000142   -0.000015
    4    4    0   18   25    0.000017    0.000223
    4    4    0   19   25    0.000710    0.000061
    4    4    0   20   25    0.000160    0.000185
    4    4    0   21   25    0.000064    0.000393
    4    4    0   22   25   -0.000340    0.000371
    4    4    0   23   25   -0.001448    0.000038
    4    4    0   24   25    0.001222    0.000240
    4    4    0   25   25   -0.002016    0.000000
    4    4    0   26   25   -0.000185   -0.000160
    4    4    0   27   25    0.001214   -0.000037
    4    4    0   28   25   -0.000200    0.000245
    4    4    0   29   25   -0.000047    0.000005
    4    4    0   30   25    0.000530   -0.000189
    4    4    0   31   25    0.000182   -0.000134
    4    4    0   32   25    0.000442    0.000131
    4    4    0    1   26   -0.000741   -0.000130
    4    4    0    2   26    0.000471    0.000105
    4    4    0    3   26   -0.000226   -0.000030
    4    4    0    4   26    0.000398    0.000458
    4    4    0    5   26    0.000378   -0.000002
    4    4    0    6   26    0.000758   -0.000019
    4    4    0    7   26    0.000374   -0.000010
    4    4    0    8   26   -0.000173    0.000193
    4    4    0    9   26   -0.000772   -0.000260
    4    4    0   10   26   -0.000397   -0.000475
    4    4    0   11   26    0.000235   -0.000071
    4    4    0   12   26    0.000143    0.000233
    4    4    0   13   26   -0.000126    0.000234
    4    4    0   14   26   -0.000330   -0.001102
    4    4    0   15   26    0.000118   -0.000232
    4    4    0   16   26    0.000920    0.001010
    4    4    0   17   26   -0.000672   -0.000034
    4    4    0   18   26    0.000206    0.000559
    4    4    0   19   26    0.000674    0.000014
    4    4    0   20   26   -0.000457    0.000923
    4    4    0   21   26    0.000400    0.000377
    4    4    0   22   26    0.000106    0.001011
    4    4    0   23   26   -0.000340    0.000131
    4    4    0   24   26    0.000215    0.001408
    4    4    0   25   26   -0.000185    0.000160
    4    4    0   26   26   -0.000093    0.000000
    4    4    0   27   26   -0.000185    0.000167
    4    4    0   28   26    0.000254    0.001162
    4    4    0   29   26   -0.000536   -0.000182
    4    4    0   30   26   -0.000168    0.000016
    4    4    0   31   26   -0.000731   -0.000013
    4    4    0   32   26    0.000100    0.000743
    4    4    0    1   27   -0.000630    0.000052
    4    4    0    2   27    0.000587   -0.000058
    4    4    0    3   27    0.000039   -0.000072
    4    4    0    4   27   -0.000399    0.000116
    4    4    0    5   27    0.000204   -0.000009
    4    4    0    6   27    0.000379    0.000008
    4    4    0    7   27   -0.000565    0.000022
    4    4    0    8   27    0.000634   -0.000022
    4    4    0    9   27    0.000520    0.000079
    4    4    0   10   27   -0.000791    0.000204
    4    4    0   11   27   -0.000111   -0.000057
    4    4    0   12   27    0.000702   -0.000201
    4    4    0   13   27    0.001385    0.000133
    4    4    0   14   27    0.000130   -0.000257
    4    4    0   15   27    0.001824    0.000043
    4    4    0   16   27    0.000873    0.000266
    4    4    0   17   27   -0.000709   -0.000108
    4    4    0   18   27    0.000009    0.000218
    4    4    0   19   27   -0.000136    0.000013
    4    4    0   20   27    0.000150    0.000192
    4    4    0   21   27    0.001084   -0.000010
    4    4    0   22   27    0.000414    0.000006
    4    4    0   23   27    0.000071   -0.000206
    4    4    0   24   27   -0.001005    0.000450
    4    4    0   25   27    0.001214    0.000037
    4    4    0   26   27   -0.000185   -0.000167
    4    4    0   27   27   -0.002017    0.000000
    4    4    0   28   27   -0.000206    0.000242
    4    4    0   29   27   -0.000181   -0.000142
    4    4    0   30   27   -0.000730    0.000053
    4    4    0   31   27   -0.000307    0.000008
    4    4    0   32   27    0.000002    0.000249
    4    4    0    1   28   -0.000976   -0.000511
    4    4    0    2   28   -0.000024    0.001217
    4    4    0    3   28   -0.001588    0.000040
    4    4    0    4   28    0.000888    0.000287
    4    4    0    5   28   -0.000636   -0.000061
    4    4    0    6   28    0.000177    0.000140
    4    4    0    7   28   -0.000639   -0.000034
    4    4    0    8   28    0.000935    0.000039
    4    4    0    9   28    0.000686    0.000257
    4    4    0   10   28    0.000092    0.000749
    4    4    0   11   28   -0.000237   -0.000036
    4    4    0   12   28    0.000453   -0.000123
    4    4    0   13   28   -0.000891   -0.000330
    4    4    0   14   28    0.000915    0.001001
    4    4    0   15   28    0.000903    0.000306
    4    4    0   16   28    0.001501   -0.000132
    4    4    0   17   28   -0.000350    0.000016
    4    4    0   18   28    0.000006   -0.000511
    4    4    0   19   28    0.000349   -0.000025
    4    4    0   20   28   -0.000233   -0.000339
    4    4    0   21   28    0.000979    0.000106
    4    4    0   22   28   -0.000244   -0.001036
    4    4    0   23   28   -0.001246   -0.000259
    4    4    0   24   28    0.000233   -0.000281
    4    4    0   25   28   -0.000200   -0.000245
    4    4    0   26   28    0.000254   -0.001162
    4    4    0   27   28   -0.000206   -0.000242
    4    4    0   28   28   -0.000364    0.000000
    4    4    0   29   28   -0.000427    0.000182
    4    4    0   30   28    0.000168   -0.000796
    4    4    0   31   28    0.000012   -0.000252
    4    4    0   32   28    0.000297    0.000070
    4    4    0    1   29   -0.000561   -0.000022
    4    4    0    2   29   -0.000349   -0.000002
    4    4    0    3   29   -0.000182   -0.000010
    4    4    0    4   29   -0.000617    0.000065
    4    4    0    5   29   -0.000732   -0.000176
    4    4    0    6   29    0.000364   -0.000206
    4    4    0    7   29    0.001607    0.000061
    4    4    0    8   29   -0.001059   -0.000249
    4    4    0    9   29   -0.001867   -0.000042
    4    4    0   10   29   -0.000144    0.000252
    4    4    0   11   29    0.001412    0.000051
    4    4    0   12   29   -0.000871   -0.000245
    4    4    0   13   29   -0.000114   -0.000008
    4    4    0   14   29   -0.000230    0.000008
    4    4    0   15   29    0.000560   -0.000031
    4    4    0   16   29    0.000230   -0.000106
    4    4    0   17   29    0.000053    0.000388
    4    4    0   18   29    0.000342   -0.000392
    4    4    0   19   29    0.001455   -0.000054
    4    4    0   20   29   -0.001206   -0.000293
    4    4    0   21   29    0.000154    0.000016
    4    4    0   22   29   -0.000011   -0.000207
    4    4    0   23   29   -0.000716   -0.000084
    4    4    0   24   29   -0.000139   -0.000221
    4    4    0   25   29   -0.000047   -0.000005
    4    4    0   26   29   -0.000536    0.000182
    4    4    0   27   29   -0.000181    0.000142
    4    4    0   28   29   -0.000427   -0.000182
    4    4    0   29   29   -0.002035    0.000000
    4    4    0   30   29    0.000191    0.000196
    4    4    0   31   29   -0.001225    0.000038
    4    4    0   32   29    0.000212   -0.000297
    4    4    0    1   30   -0.000356   -0.000012
    4    4    0    2   30    0.000693    0.000019
    4    4    0    3   30    0.000349   -0.000007
    4    4    0    4   30   -0.000287    0.000105
    4    4    0    5   30    0.000785    0.000116
    4    4    0    6   30    0.000495    0.000067
    4    4    0    7   30   -0.000222   -0.000018
    4    4    0    8   30    0.000494    0.000456
    4    4    0    9   30    0.000152   -0.000234
    4    4    0   10   30   -0.000328   -0.001112
    4    4    0   11   30    0.000136   -0.000243
    4    4    0   12   30    0.000943    0.000951
    4    4    0   13   30    0.000770    0.000258
    4    4    0   14   30   -0.000360   -0.000469
    4    4    0   15   30    0.000218   -0.000077
    4    4    0   16   30    0.000111    0.000267
    4    4    0   17   30   -0.000405   -0.000406
    4    4    0   18   30    0.000133    0.001085
    4    4    0   19   30   -0.000352    0.000161
    4    4    0   20   30    0.000264    0.001543
    4    4    0   21   30    0.000684    0.000015
    4    4    0   22   30    0.000222    0.000457
    4    4    0   23   30    0.000677   -0.000012
    4    4    0   24   30   -0.000471    0.000852
    4    4    0   25   30    0.000530    0.000189
    4    4    0   26   30   -0.000168   -0.000016
    4    4    0   27   30   -0.000730   -0.000053
    4    4    0   28   30    0.000168    0.000796
    4    4    0   29   30    0.000191   -0.000196
    4    4    0   30   30   -0.000153    0.000000
    4    4    0   31   30   -0.000184    0.000197
    4    4    0   32   30    0.000245    0.001163
    4    4    0    1   31   -0.000183   -0.000022
    4    4    0    2   31    0.000363    0.000006
    4    4    0    3   31   -0.000561   -0.000019
    4    4    0    4   31    0.000606   -0.000041
    4    4    0    5   31    0.000645   -0.000085
    4    4    0    6   31    0.000567   -0.000051
    4    4    0    7   31    0.000051   -0.000045
    4    4    0    8   31   -0.000394    0.000128
    4    4    0    9   31   -0.001407   -0.000134
    4    4    0   10   31    0.000141   -0.000243
    4    4    0   11   31    0.001863    0.000044
    4    4    0   12   31    0.000860    0.000268
    4    4    0   13   31   -0.000530   -0.000076
    4    4    0   14   31   -0.000770    0.000206
    4    4    0   15   31   -0.000123   -0.000027
    4    4    0   16   31    0.000697   -0.000199
    4    4    0   17   31   -0.001093   -0.000020
    4    4    0   18   31    0.000406    0.000051
    4    4    0   19   31    0.000043   -0.000214
    4    4    0   20   31   -0.001011    0.000501
    4    4    0   21   31    0.000712    0.000126
    4    4    0   22   31   -0.000006    0.000215
    4    4    0   23   31   -0.000155   -0.000015
    4    4    0   24   31    0.000140    0.000225
    4    4    0   25   31    0.000182    0.000134
    4    4    0   26   31   -0.000731    0.000013
    4    4    0   27   31   -0.000307   -0.000008
    4    4    0   28   31    0.000012    0.000252
    4    4    0   29   31   -0.001225   -0.000038
    4    4    0   30   31   -0.000184   -0.000197
    4    4    0   31   31   -0.002030    0.000000
    4    4    0   32   31   -0.000220    0.000290
    4    4    0    1   32    0.000605    0.000038
    4    4    0    2   32    0.000284    0.000158
    4    4    0    3   32   -0.000616   -0.000025
    4    4    0    4   32    0.001155   -0.000040
    4    4    0    5   32    0.000957    0.000481
    4    4    0    6   32   -0.000015    0.001158
    4    4    0    7   32   -0.001584    0.000001
    4    4    0    8   32    0.000845    0.000108
    4    4    0    9   32    0.000885    0.000337
    4    4    0   10   32    0.000910    0.001116
    4    4    0   11   32    0.000891    0.000314
    4    4    0   12   32    0.001547   -0.000152
    4    4    0   13   32   -0.000677   -0.000266
    4    4    0   14   32    0.000025    0.000805
    4    4    0   15   32   -0.000239   -0.000009
    4    4    0   16   32    0.000556   -0.000386
    4    4    0   17   32   -0.000964   -0.000081
    4    4    0   18   32   -0.000204   -0.001166
    4    4    0   19   32   -0.001242   -0.000311
    4    4    0   20   32    0.000254   -0.000494
    4    4    0   21   32    0.000350    0.000014
    4    4    0   22   32    0.000037   -0.000492
    4    4    0   23   32    0.000339   -0.000001
    4    4    0   24   32   -0.000102   -0.000193
    4    4    0   25   32    0.000442   -0.000131
    4    4    0   26   32    0.000100   -0.000743
    4    4    0   27   32    0.000002   -0.000249
    4    4    0   28   32    0.000297   -0.000070
    4    4    0   29   32    0.000212    0.000297
    4    4    0   30   32    0.000245   -0.001163
    4    4    0   31   32   -0.000220   -0.000290
    4    4    0   32   32   -0.000219    0.000000
